/*--------------------------------*- C++ -*----------------------------------*\
| =========                 |                                                 |
| \\      /  F ield         | OpenFOAM: The Open Source CFD Toolbox           |
|  \\    /   O peration     | Version:  2306                                  |
|   \\  /    A nd           | Website:  www.openfoam.com                      |
|    \\/     M anipulation  |                                                 |
\*---------------------------------------------------------------------------*/
FoamFile
{
    version     2.0;
    format      ascii;
    arch        "LSB;label=32;scalar=64";
    class       volScalarField;
    location    "0.19";
    object      p;
}
// * * * * * * * * * * * * * * * * * * * * * * * * * * * * * * * * * * * * * //

dimensions      [1 -1 -2 0 0 0 0];

internalField   nonuniform List<scalar> 
6000
(
5.0586e+07
1.5621e+06
140079
115465
85762.3
75600.7
77186.3
84698
96411.1
109719
122638
135271
149029
164828
180942
194197
199001
204359
208883
211348
206021
184289
126370
97488.2
96181.1
100294
107778
116431
125079
132912
139812
146276
152327
157645
162053
165924
169863
174489
181948
196473
211643
222252
218424
181758
131175
118109
115655
117725
121749
127502
134650
141628
145877
147416
148031
148910
151039
154633
158523
161715
163927
166031
170098
178253
186763
191724
192594
169967
142003
137293
135869
137097
138435
139272
140902
144621
150110
156071
160406
162655
163166
162186
160731
160174
161110
164342
170519
179542
184342
184486
176709
156211
146059
145781
146275
148317
150222
151392
152273
152825
153160
153843
155323
157581
160295
163118
166052
168549
171255
173585
175320
175606
172789
167175
153245
142685
141918
144510
147853
151497
153962
154932
155269
155497
155806
156485
157846
159827
161908
163792
165904
169337
175243
181849
186732
189904
186862
174604
157293
151307
149956
150390
151961
153357
153909
154032
154076
154473
155808
158065
161127
163716
164928
164713
163532
162169
161389
162328
164832
165813
166148
162540
152426
145216
144421
144658
146739
150106
152409
153338
153872
154463
155213
156177
157501
159138
159950
161145
162204
162719
163791
165089
167643
169844
169212
166918
161248
152477
149056
149406
151803
156004
159102
160433
160462
159936
158861
158157
158168
158576
157833
157152
155825
154681
154508
155315
156997
158909
159904
158881
154689
147342
143487
142450
142525
143839
146103
148188
149592
150800
152267
154375
157563
161544
164130
164835
164951
164482
163844
163085
162443
161965
160904
159500
155836
148329
143787
143388
143952
144790
146382
147867
148499
148756
149056
149677
150699
152344
154860
158220
160052
160182
159788
159564
160060
161622
163704
164295
163648
159948
151123
145508
145072
145601
147207
149907
151909
152563
152807
152873
152898
153085
153635
154736
156894
159968
161724
162183
162388
162720
163571
165270
167300
168096
167837
164924
156644
149986
149241
150064
151267
152344
152787
152321
151349
150252
149527
148961
148832
150576
5.0573e+07
1.55286e+06
135971
112865
85984.4
77614.9
79330.1
86057.6
96908.5
109577
122433
135254
149053
164997
181473
194929
199719
205096
209790
212395
206650
184062
125656
97770.7
97034.7
101670
109401
117585
125051
131916
138464
144793
150791
155954
160161
164046
168456
174057
182295
196435
210448
218987
215723
181729
131033
118284
116447
118909
123216
129112
135615
141785
145273
146799
147756
149115
151711
155670
159899
163278
165496
167497
171565
179941
188263
192441
191588
167568
140166
136230
135335
136990
138684
140059
142203
145632
150148
154773
158644
161110
162160
161889
161305
161414
162858
166078
171823
179958
183431
183263
175221
155081
145641
145514
146081
148076
149841
150902
151707
152357
153058
154203
156085
158678
161285
163720
165858
167784
170094
172937
175393
175631
173246
167848
153643
142917
142012
144166
146916
150208
152550
153543
154001
154409
155021
156168
158022
160348
162528
164321
166087
168908
174099
180120
184580
187232
184123
172294
155382
149514
148315
148937
150813
152656
153515
153734
153777
154086
155230
157284
160185
162995
164500
164691
164088
163380
163125
164385
166795
167576
167505
163449
152653
145195
144337
144575
146572
149888
152147
153010
153543
154015
154584
155473
156961
159241
160928
162198
163086
163466
164144
165287
167847
170129
169588
167378
161365
152297
148901
149174
151182
154776
157614
158712
158694
158221
157412
157019
157727
159059
159555
159641
158974
157763
157362
157640
158803
160013
160480
159354
154976
147469
143775
142833
142917
144202
146450
148491
149840
150965
152256
154058
156935
160710
163279
163915
163933
163462
162988
162428
162070
161873
160977
159731
156210
148712
144047
143624
144123
144959
146628
148274
149033
149344
149692
150263
151185
152692
155066
158337
160444
160806
160637
160556
161216
162933
164881
165389
164712
160844
151895
146313
145863
146326
147805
150348
152184
152655
152790
152933
153225
153651
154395
155740
158169
161456
163237
163653
163770
163970
164622
166079
167722
168168
167915
164940
156811
150285
149465
150140
151412
152828
153445
153127
152129
150975
150342
149890
149802
151583
5.05537e+07
1.53228e+06
132143
110536
86691.6
80241
81613
87310.6
96956.3
109251
122382
135663
149428
165346
182364
195805
200618
206003
210703
213269
206826
183034
124018
97993.1
98474.3
103891
111598
118578
124199
129911
136190
142807
149003
153985
158104
162226
167337
174043
182928
195575
207664
212472
211293
182385
132046
119470
118421
121364
126124
131224
136324
140436
143469
145466
147104
149256
152620
157243
162074
165847
168156
169974
173944
182339
189796
192269
189188
163451
138008
135559
135219
137409
139813
141835
143961
146415
149275
152360
155490
158250
160529
162061
162863
163784
165420
167914
173081
180190
182093
182030
173418
153338
144920
144777
145471
147437
149008
149943
150867
152071
153547
155392
157699
160265
162496
163956
164781
165836
167794
171278
175127
176039
174406
169252
154497
143143
142070
143369
145421
148185
150253
151300
152032
152942
154236
156065
158524
161345
163736
165230
166439
168648
172860
178049
181732
183488
180602
169456
153025
147172
146280
147262
149565
152017
153227
153366
153225
153371
154296
156130
158872
161950
163963
164629
164638
164535
165142
167226
169780
170340
169638
164823
152974
145152
144222
144636
146754
150034
152206
153029
153213
153261
153536
154362
156137
159044
161923
163149
163627
163667
163993
165466
168560
170981
170861
168729
162276
152279
148853
148975
150451
153280
155552
156184
156094
155786
155462
155678
157205
159801
161318
161944
161949
161162
160794
160755
161560
162188
162060
160585
155558
147635
144249
143397
143488
144770
147046
149106
150381
151391
152406
153729
156050
159504
162065
162717
162654
162238
161887
161559
161481
161635
161036
160009
156761
149377
144463
143986
144466
145389
147219
149077
149826
150177
150522
151005
151783
153088
155263
158450
160828
161397
161458
161639
162634
164794
166610
167076
166345
162185
152948
147539
147089
147452
148760
151026
152587
152917
152932
152965
153186
153801
154947
156940
160110
163815
165682
166073
166057
166045
166278
167182
168391
168812
168305
165009
157038
150736
149748
150056
151315
153221
154161
154219
153532
152467
151835
151502
151416
153121
5.05438e+07
1.53451e+06
129007
109895
88329.2
83317.9
83734.8
88281.8
96800
108753
122322
136201
150315
166629
183926
197202
202362
207419
211559
213712
206651
181532
122107
98645.6
100624
106547
113652
119054
123203
127716
133339
139854
146252
151556
156047
160790
166722
174148
183156
194636
204773
205761
205105
181697
133228
120399
120457
124154
129339
133574
136829
139335
141774
144169
146599
149610
153823
159176
164700
168822
171202
172933
176793
184985
191369
191660
186153
158633
135657
134297
135355
138431
141581
143807
145431
146788
148223
149996
152283
155034
158361
161961
164854
166794
168523
170346
174371
180322
181245
180955
171060
150851
143742
143571
144424
146341
147638
148390
149673
151902
154536
157372
160003
162033
163441
164028
164119
164475
165783
169173
174185
176197
175715
171003
155670
143502
142327
142911
144364
146557
148142
149017
149957
151360
153434
156147
159473
162767
164973
165788
166301
167712
170759
174953
177742
178315
175596
165378
149847
144065
143660
145160
148001
151015
152542
152727
152504
152568
153432
155225
157996
161117
163458
164581
165199
165865
167385
170555
173524
173958
172597
166818
153665
145056
143851
144421
146739
150099
152180
152873
152717
152431
152602
153658
155968
159454
162705
164011
163975
163788
164216
166209
169784
172160
172412
170208
162401
151592
148470
148352
149186
151071
152694
153211
153441
153644
153964
154919
157196
160824
163343
164418
164759
164719
164495
164806
165743
166146
165594
163302
156874
148249
145100
144319
144351
145557
147732
149802
150911
151788
152508
153433
155224
158290
160772
161497
161333
161041
160827
160748
161050
161568
161317
160603
157669
150438
145226
144714
145216
146258
148289
150287
151079
151444
151663
151933
152456
153530
155624
158871
161732
162755
163115
163687
165033
167299
168848
169293
168528
163936
154189
148990
148477
148665
149759
151684
153049
153341
153402
153520
153850
154643
156147
158673
162477
166344
167973
168294
168153
167928
167928
168437
169103
169201
168158
164825
157710
151679
150378
150392
151516
153641
155013
155490
155274
154571
154020
153810
153806
155468
5.0567e+07
1.50331e+06
127353
111483
91153.4
86016.8
85121.2
88695.2
96203.9
107745
121747
136702
152202
169232
186538
199529
204552
208428
211643
212810
205637
179397
120036
99876.2
102837
108760
114887
119039
122129
125543
130226
136322
143008
149293
154855
160451
166913
174363
182723
192520
201168
201642
199263
179691
134594
120215
122200
126784
132207
135773
137635
139073
140755
143014
145971
149831
154859
160820
166721
171120
173757
175578
179328
187022
192340
190852
183234
154304
133559
133034
135741
139879
143537
145517
146365
146755
147193
148048
149666
152224
156140
161491
166272
169833
171671
172979
175971
180765
180926
179726
167881
147627
141956
141772
142794
144628
145670
146481
148569
151932
156015
159812
162292
163572
164007
163526
162954
162762
163938
167458
173087
176126
176947
172764
157285
144027
142587
142492
143551
145391
146594
147332
148410
150202
153054
156857
161057
164447
165785
165697
165607
166296
168375
171476
173621
173066
170556
161619
146974
141141
141338
143290
146498
149887
151650
151931
151626
151571
152439
154402
157411
160710
163222
164669
165721
167058
169397
173355
176820
177378
175533
168924
154423
144925
143508
144347
146882
150096
152175
152812
152473
151990
152133
153368
155952
159484
162617
164049
164197
164080
164727
167145
170974
173324
174123
171567
162027
150584
147702
147273
147655
148824
150175
151068
151689
152261
153045
154510
157245
161180
164427
166105
167021
167304
167569
168483
169850
170426
170012
167482
159476
149574
146505
145749
145687
146752
148702
150392
151381
152123
152706
153384
154741
157351
159707
160461
160380
160122
160027
160319
161080
161963
162026
161588
158892
151828
146368
145802
146367
147559
149800
151792
152528
152791
152846
152902
153202
154096
156140
159526
162781
164335
165143
166121
167713
169797
171021
171362
170279
165067
155155
150355
149799
149851
150834
152521
153728
153982
154053
154204
154688
155588
157201
159946
164122
168085
169618
169945
169779
169249
168872
168956
169055
168664
167335
164402
158562
152687
151059
150906
151892
153962
155732
156424
156635
156418
156261
156328
156487
158180
5.05542e+07
1.51902e+06
126613
113701
93695.4
87347.9
85604.2
88636.1
95358.2
106399
120670
136987
154401
172997
191121
202803
206906
208929
210975
210809
204439
177026
118297
101234
104727
110049
115181
118470
120983
123715
127452
132769
139495
146992
154356
161201
168028
174817
181695
190169
198360
199364
196104
178115
134568
119516
122738
128215
133860
137516
139026
139668
140681
142573
145572
149850
155363
161765
168005
172584
175366
177302
181005
188265
192733
190342
181295
151387
131871
131892
135797
140823
145040
146908
147188
146916
146781
147109
148188
150579
154735
160956
167126
171952
174072
175547
178284
181999
181163
178528
163764
143550
139442
139282
140506
142355
143385
144764
147465
152038
157296
161754
163887
164573
164217
163183
162246
161883
163027
166374
172447
176222
177518
173800
158492
144350
142619
142271
143219
144944
146014
146741
147935
150063
153558
158316
162851
165582
165757
164856
164145
164142
165482
167898
169919
169246
166866
158904
144896
139168
139649
142035
145421
148893
150690
150938
150585
150582
151639
154007
157416
161099
163874
165466
166648
168340
171169
175408
179220
180060
177837
170712
155262
145114
143460
144362
146982
150108
152286
152970
152656
152111
152199
153438
156034
159515
162501
164044
164560
164783
165753
168180
171622
173669
175294
172419
160539
148906
146471
145806
145949
147068
148749
149971
150801
151629
152702
154431
157379
161445
165186
167307
168506
168993
169563
171006
172781
173664
173371
171245
162839
151631
148135
147377
147236
148002
149494
150759
151761
152447
152995
153519
154634
156977
159301
160141
160136
160001
160099
160703
161846
163047
163513
163216
160581
153528
148021
147482
148124
149420
151690
153536
154071
154184
154144
154101
154280
155134
157388
161208
164664
166325
167313
168449
169972
171355
172151
172424
171167
165481
155664
151311
150715
150669
151611
153256
154514
154843
154940
155105
155576
156420
157975
160711
164963
168914
170305
170527
170189
169045
168175
167941
167835
167355
166428
164408
159471
153530
151618
151401
152284
154262
156271
157001
157392
157535
157790
158224
158715
160543
5.05645e+07
1.49397e+06
126145
114242
94004.8
87054.1
85256.9
88125.7
94511.2
105231
119659
137116
156844
177314
197119
207342
209536
209645
209430
208233
203103
174490
116829
102322
105915
110467
114874
117796
120100
122526
125610
129888
136055
144279
153838
162641
169866
175474
181111
188323
196428
198375
195749
178990
134898
118672
122015
128335
134517
138112
139504
140159
141009
142626
145538
149962
155720
162258
168307
172816
175699
177821
181575
188842
192881
190410
180675
150282
131592
131734
135474
140679
145192
147516
147728
147197
146848
147058
148015
150246
154318
160500
166987
172595
175282
177761
181076
184015
182193
177563
158800
139006
136392
136230
137706
139857
141353
143277
146659
151980
157615
162465
164604
165023
164293
163192
162239
161948
163181
166461
172416
176314
177259
173857
158831
144406
142532
142401
143402
145263
146451
147283
148676
151121
155002
159842
164017
165647
164843
163325
162165
161825
162920
165389
167666
166938
164588
157365
143796
138272
138853
141438
144798
148092
149668
149823
149533
149735
151114
154024
158045
162259
165227
166718
167633
169076
171664
175674
179616
180886
178772
171749
156055
145633
143881
144725
147308
150550
152726
153552
153242
152677
152709
153909
156449
159917
162935
164455
164961
165485
166679
168452
171201
172980
174951
171649
158521
147595
145644
144861
144979
146351
148188
149544
150506
151500
152738
154599
157565
161546
165487
167977
169511
170407
171237
172813
174623
175807
175187
173156
164958
153486
150018
149573
149649
150324
151312
151742
152332
152650
153318
153921
155164
157480
159832
160786
160860
160798
160963
161834
163364
164855
165612
165436
162818
155784
150327
149767
150398
151661
153845
155420
155725
155681
155547
155522
155801
156873
159630
163956
167262
168474
169092
169842
170812
171790
172491
172438
170621
164693
155647
151679
151081
151026
151981
153714
155110
155520
155601
155694
156058
156774
158114
160591
164614
168159
169249
169298
168567
167133
166228
166035
166245
166285
166077
164539
159953
153874
151797
151570
152389
154300
156400
157272
157618
157934
158478
159225
160097
161993
5.0509e+07
1.51263e+06
126054
113728
92625.8
85531.1
83978.3
87327.5
94011.5
104606
118971
137358
159359
183134
204206
212785
212447
210028
207957
205729
201801
171504
114958
103296
106071
110401
114470
117307
119644
122062
124898
128441
133621
141687
152589
163597
171519
176750
181325
187445
195637
198787
197920
182751
137571
118273
120474
126276
133187
137613
139520
140567
141740
143427
146125
150231
155656
161793
167439
171693
174530
176823
180992
189071
193165
191422
181379
150277
132032
132012
134834
139692
144257
146763
147414
147485
147614
148144
149242
151309
154908
160298
166361
172076
175791
179739
184129
186481
183890
176641
153475
134707
133079
133115
135092
137769
139873
142365
146088
151283
156852
161336
163609
164416
164092
163348
162835
162929
164274
167401
173138
176668
176541
173159
158316
143945
142151
142633
144168
146407
147893
148858
150413
153105
156883
160788
163711
164225
162880
161231
160133
160093
161282
163970
166440
165891
163648
156803
143453
138091
138757
141405
144539
147419
148726
148762
148566
149071
150984
154590
159304
163911
166845
168025
168327
168838
170727
174426
178356
180027
178642
171955
156519
146252
144620
145425
148021
151427
153665
154362
154187
153707
153779
154936
157496
161018
163937
165075
165065
165123
165880
167910
170476
172016
173519
169774
157328
147480
145863
145050
145363
146685
148383
149680
150619
151609
152846
154651
157452
161152
164872
167511
169321
170585
171640
173227
174899
175945
174998
172732
164890
153992
151012
151174
151932
153385
154313
154417
154372
154263
154562
154933
156037
158372
161027
162217
162327
162286
162706
164026
166079
167914
168779
168454
165625
158439
152991
152373
152881
154029
156059
157319
157490
157302
157140
157219
157745
159184
162381
166816
169503
170079
170125
170287
170845
171506
171734
171010
168605
163126
155369
151543
150982
151034
152116
154052
155528
155928
155935
155830
155956
156423
157453
159368
162712
165717
166496
166312
165292
164169
163899
164138
164913
165564
165472
164229
159760
153598
151506
151366
152241
154119
156260
157326
157643
158016
158546
159345
160243
162038
5.04733e+07
1.51694e+06
125965
112840
90976.8
83709.2
82346.2
86429.1
93775.3
104637
118912
137761
161969
189625
211153
218053
215357
211043
207135
203766
200741
167354
112621
103907
106086
110432
114301
117184
119698
122270
125083
128348
132864
140226
150946
163042
172120
177673
182182
187786
196755
200821
202242
187941
140623
118830
118645
123150
130265
135947
139190
140986
142669
144717
147435
151084
155678
160904
165996
170022
172745
175081
179930
189063
193699
193414
182996
150841
132970
131983
133667
137711
141985
144983
146951
148109
149201
150423
151783
153537
156283
160480
165683
171155
175813
181364
186800
188469
185278
175393
148796
131405
129865
130496
133177
136448
139324
142122
145700
150086
154632
158449
161274
163007
163657
163651
163912
164613
166098
169103
174208
177302
176037
172137
157176
143110
141554
142948
145395
148321
150241
151434
152974
155260
158170
160594
161787
161641
160565
159331
158764
159141
160461
163440
166326
165998
163941
157225
143812
138484
139149
141641
144490
147023
148096
148065
147992
148824
151238
155426
160731
165465
167959
168411
167984
167871
168934
172063
175823
177860
177419
171325
157055
147167
145649
146253
148746
152298
154562
155340
155297
155081
155349
156498
159004
162480
164849
165429
165216
164983
165182
166770
168932
170339
171034
167542
156967
147877
146385
145610
146197
147718
149356
150393
151122
151930
152926
154458
156960
160455
163925
166269
168001
169324
170456
172124
173814
174404
173426
171205
163614
153622
151243
152015
153475
155996
157646
157846
157692
157351
157257
157424
158105
159886
162416
163811
164091
164334
165076
166613
168950
170917
171536
171039
168141
160785
155297
154637
155081
156190
158024
159002
159089
158806
158685
158934
159693
161357
164478
168342
170479
170876
170780
170641
170490
170221
169568
168201
165911
161821
155345
151185
150676
150868
152053
154103
155482
155814
155649
155299
155055
155101
155698
156912
159301
161999
162818
162782
162347
162056
162121
162482
163405
164224
164217
163132
158893
152857
150853
150892
151801
153689
155970
157222
157682
157876
158037
158521
159198
160774
5.04879e+07
1.51945e+06
125683
112232
89884.3
82353.4
81110
85869.4
93910.4
105337
119734
138564
163840
194118
215484
221549
217908
212074
206712
203753
200240
161889
109969
103982
106064
110460
114427
117543
120342
123154
126040
129242
133530
140015
149561
160931
170714
177433
182710
189423
200161
205459
208441
192028
142505
119368
117338
120560
126683
132890
137896
141072
143667
146241
148932
152055
155928
160458
164972
168549
171168
173737
179100
189208
194160
195629
184623
151263
133925
131769
132754
135682
139220
142531
145750
148759
151306
153390
154983
156378
158189
161095
165457
170545
175934
182410
188386
189759
186038
174246
145868
129337
127704
128874
132097
136029
139463
142377
145321
148356
151320
154590
158022
161080
163165
164244
165329
166508
168075
170982
175460
178080
176058
171360
156173
142364
140959
143283
146741
150652
152960
154099
155247
156854
158395
159177
159341
159094
158627
158125
157855
158592
160174
163602
167064
167009
165241
158549
144834
139258
139805
141842
144468
146901
147906
147946
148091
149198
151922
156359
161674
166057
168168
168112
166929
166261
166537
168764
172179
174430
175182
170453
158123
148444
146949
147255
149436
152843
155253
156181
156505
156727
157304
158544
160838
163833
165540
165812
165252
164554
164324
165278
166800
167845
168191
165660
157231
148637
147010
146387
147246
149150
150860
151619
152063
152559
153128
154162
156249
159552
162775
164655
165944
167153
168156
169767
171636
172091
171107
168719
161421
152878
151166
152282
154143
157200
159592
160177
160317
160243
160269
160484
161028
162301
164324
165582
165907
166259
166894
168233
170493
172558
172880
172437
169751
162486
156974
156342
156708
157729
159384
160281
160282
159956
159887
160257
161136
162737
165496
169018
170976
171186
170788
169722
168533
167566
166556
165447
164225
161437
155413
150809
150311
150623
151828
153782
154879
155033
154617
153885
153168
152845
152970
153782
155854
158905
160319
160402
160212
159980
160050
160555
161679
162555
162631
161754
157838
151969
150065
150292
151212
153184
155634
156830
157146
157191
157109
157139
157373
158644
5.05108e+07
1.50547e+06
125066
111988
89932.8
82110
80829.9
86027.5
94594.3
106837
121930
140614
165121
194960
215759
221941
218779
212967
208223
205959
200182
155256
106968
103729
105787
110561
114937
118381
121450
124473
127556
130886
134990
140735
148609
158120
167642
175656
182830
192776
205751
212418
214219
194069
142723
119604
116713
118925
123845
129963
136009
141219
144911
147776
150189
152729
155993
160081
164360
167880
170510
173250
178946
189558
194859
197429
185553
151215
134562
131650
131965
134119
136659
139892
144124
149046
153178
156145
157930
159088
160219
162047
165458
170192
175930
182744
188974
190292
186204
173606
144894
128495
126884
128323
131915
136358
140032
142727
144613
146025
147864
150570
154150
158164
161910
164682
166376
168067
169742
172494
176515
178982
176503
171351
156060
141790
140521
143529
147602
151932
154460
155777
156690
157315
157544
157388
157363
157616
157624
157289
157291
158372
160498
164545
168532
168771
167315
160430
146061
139975
140343
141921
144530
147091
148258
148541
148915
150151
152859
157105
161967
165791
167379
166799
165331
164183
163711
165131
168381
170791
172669
169451
159059
149486
147949
147968
149851
153042
155572
156612
157270
157999
159014
160485
162700
165096
166120
165799
164890
163856
163195
163492
164803
165749
166161
164250
157236
149106
147475
147141
148266
150533
152348
153017
153280
153495
153653
154159
155766
158759
161372
162438
163302
164229
165089
166508
168373
168873
168149
166043
159607
152458
151063
152201
154098
157291
160058
161014
161378
161617
161889
162445
163371
164776
166433
167199
167502
167665
168048
168921
170825
172968
173230
172733
170252
163246
157798
157187
157587
158698
160375
161184
161095
160715
160528
160709
161531
163082
165815
168872
170183
169971
168820
166908
165586
165324
165325
165197
164403
161724
155575
150508
149897
150322
151524
153177
153899
153711
152938
151859
150948
150579
150720
151601
153805
157033
158579
158657
158508
158342
158429
159082
160365
161219
161374
160623
157012
151287
149360
149717
150648
152705
155009
155965
156080
156001
155602
155307
155363
156583
5.05348e+07
1.48343e+06
124573
110920
89937.1
82575.6
81236.9
86678.7
95830.3
108894
124640
143286
165906
192839
212507
218400
217222
213290
210772
209951
199963
148287
103823
102278
105147
110720
115674
119464
122787
126066
129417
133026
137163
142221
148584
155960
164135
172842
182831
196818
211953
219517
218031
194499
141336
119299
116134
117915
122113
128012
134612
141522
146327
149001
150935
153034
155933
159779
164000
167705
170543
173463
179242
189881
195291
198375
185550
150546
134842
131663
131737
133401
135280
137959
142428
148561
154492
157906
159963
161181
161994
163220
165808
170029
175334
182043
188386
190126
186205
174571
146159
128864
127302
128892
132751
137466
140818
142688
143440
144030
145239
147403
150688
154998
159885
163953
166744
169135
170857
173390
177274
179935
177466
172119
156381
141555
140226
143225
147829
152505
154976
155946
156303
156305
156098
156133
156578
156995
157107
156925
157136
158531
161379
165971
170507
171294
169994
162602
147432
140725
140668
141944
144748
147645
149144
149676
150268
151588
154039
157562
161383
164390
165391
164462
162937
161696
161196
162512
165925
168373
170556
168468
159247
149805
148284
148397
150295
153400
155738
156851
157595
158519
159774
161533
164027
166055
166600
165826
164549
163022
162144
162363
163855
164753
164982
163366
156962
149122
147615
147653
148942
151490
153425
154100
154318
154397
154408
154718
155960
158395
160156
160715
161051
161192
161701
162663
164559
165527
165358
164063
158833
152327
150893
151713
153513
156579
159256
160284
160785
161166
161500
162251
163627
165722
167546
168323
168578
168305
168413
168671
170009
172153
172618
172127
169758
162940
157592
157086
157526
158792
160534
161278
161132
160667
160310
160326
161033
162449
164600
166520
167192
166568
165143
164010
163986
164675
165692
165992
165349
162764
156275
150593
149759
150140
151177
152433
152810
152308
151283
150155
149395
149127
149354
150298
152574
155836
157473
157537
157323
157164
157292
158075
159542
160449
160731
160070
156606
150905
148851
149208
150138
152226
154263
154947
154929
154604
153941
153534
153479
154776
5.05601e+07
1.48387e+06
123830
108604
89202.7
82868.1
82079.5
87778.7
97583.6
111159
127016
145064
166180
189921
207586
212514
213760
212989
213823
214202
199809
142003
101210
100007
103993
110482
116210
120608
124254
127724
131315
135214
139439
144016
149204
155242
162235
171115
183689
200779
217116
224681
220040
193026
138705
118701
115662
117369
121424
127244
134315
141905
147428
149719
151289
153115
155757
159455
163712
167596
170764
173970
179881
190212
195298
198461
184642
149223
134274
131272
131608
133373
135159
137507
141585
147762
154527
158645
160743
161980
162936
163993
166240
169768
174270
180078
186380
189169
185798
176385
149989
130641
129033
130841
134686
138900
141415
142314
142559
142910
143863
145654
148408
152444
157561
162353
166360
169236
171199
173871
177975
180954
178568
173145
156876
141473
140095
142969
147350
151492
153422
154140
154498
154794
155149
155631
156419
157117
157341
157142
157411
159093
162659
167726
172834
174516
172904
164685
148776
141521
140784
142069
145063
148209
150182
151199
151972
153074
154838
157341
159984
162076
162575
161803
160638
159787
159810
161552
165283
167547
169193
167252
158504
149303
147880
148295
150330
153486
155798
156824
157301
157993
159231
161307
164394
166615
166734
165913
164407
162818
162082
162374
163866
164691
164657
163017
156703
148947
147492
147826
149172
151817
153985
154739
154937
155000
155088
155553
156777
158575
159282
159420
159011
158422
158476
159168
161280
163138
163981
163441
158964
152551
150887
151181
152642
155482
157897
158765
159296
159734
159961
160552
161831
164305
166928
168192
168729
168352
167996
167888
168790
170453
170918
170430
168156
161516
156291
155906
156467
158027
159959
160677
160447
159834
159274
159067
159273
159872
160799
161927
162970
163037
162864
163041
163605
164887
166432
166951
166540
164178
157389
150938
149799
150058
150893
151830
152051
151483
150488
149397
148704
148422
148687
149653
151925
155233
156995
157072
156806
156672
156926
157880
159512
160490
160916
160307
156829
150863
148583
148884
149794
151832
153531
153920
153743
153156
152466
152125
152063
153505
5.06113e+07
1.40952e+06
120714
104681
88276.7
83296.6
83218.7
89242.8
99557.9
113166
128573
145564
165060
186361
202635
207275
210000
212376
216583
217491
199852
137434
98993
97608.2
102224
109532
116218
121421
125526
129219
132947
137000
141342
145815
150564
155994
162612
171831
185757
203485
219783
226792
219711
189016
134583
117769
115290
117257
121402
127387
134947
142459
147666
149855
151152
152797
155406
159143
163449
167459
170812
174278
180552
190810
195380
198143
183734
147675
133315
130836
131516
133620
135759
138170
141941
147207
152933
157446
160031
161722
163167
164494
166436
168999
172258
176862
183302
187465
185116
178300
155478
134523
132486
134274
137223
140297
141903
142316
142358
142658
143540
145168
147711
151191
155572
160365
165086
168750
171071
174272
178825
181838
179415
173827
156947
141936
140366
142513
145835
148773
150324
151184
152147
153434
154644
155798
157128
158124
158351
158093
158285
160113
164168
169753
175494
177858
175735
166397
149677
142123
140986
142360
145518
149027
151389
152674
153331
153952
154929
156444
158212
159849
160384
160046
159381
158997
159617
161861
165761
167585
168317
166000
157105
148252
147057
147959
150062
153166
155396
156164
156328
156587
157684
159910
163221
165763
166211
165916
164792
163511
162888
163032
164449
165323
165062
163191
156715
148730
147147
147585
148959
151687
154088
155051
155267
155206
155322
156067
157565
159110
159180
159085
158296
157429
157383
157979
160362
162739
163979
163811
159702
152882
150703
150412
151381
153803
155872
156511
156984
157332
157503
158025
159313
161963
165215
166773
167694
167706