/*--------------------------------*- C++ -*----------------------------------*\
| =========                 |                                                 |
| \\      /  F ield         | OpenFOAM: The Open Source CFD Toolbox           |
|  \\    /   O peration     | Version:  2306                                  |
|   \\  /    A nd           | Website:  www.openfoam.com                      |
|    \\/     M anipulation  |                                                 |
\*---------------------------------------------------------------------------*/
FoamFile
{
    version     2.0;
    format      ascii;
    arch        "LSB;label=32;scalar=64";
    class       volVectorField;
    location    "0.19";
    object      U;
}
// * * * * * * * * * * * * * * * * * * * * * * * * * * * * * * * * * * * * * //

dimensions      [0 1 -1 0 0 0 0];

internalField   nonuniform List<vector> 
6000
(
(-2340.27 -0.489294 0)
(-792.13 4.1761 0)
(173.123 -2.58641 0)
(3.60781 -6.09427 0)
(-149.424 -4.88383 0)
(-219.936 -3.68258 0)
(-221.469 -2.33764 0)
(-210.468 -2.24757 0)
(-172.787 0.650259 0)
(-111.048 2.91608 0)
(-29.1152 2.84369 0)
(63.4312 3.58958 0)
(163.029 2.95642 0)
(264.972 3.12913 0)
(351.725 2.91307 0)
(406.109 2.28278 0)
(415.126 2.21043 0)
(401.772 2.25501 0)
(383.652 2.83025 0)
(370.191 3.3821 0)
(366.703 3.14205 0)
(310.539 2.35617 0)
(72.4926 0.863168 0)
(-90.9536 1.17988 0)
(-82.3582 1.30044 0)
(-59.6901 0.413721 0)
(-33.3702 -1.29646 0)
(-17.3517 -3.03568 0)
(-6.97307 -4.2756 0)
(6.7771 -4.37231 0)
(26.5879 -4.46206 0)
(50.7582 -4.271 0)
(78.1455 -3.89795 0)
(110.063 -4.18287 0)
(146.779 -3.18418 0)
(186.594 -1.76751 0)
(228.062 -2.2521 0)
(270.482 -3.11179 0)
(308.162 -4.857 0)
(336.772 -7.25915 0)
(342.55 -7.53767 0)
(333.554 -4.91437 0)
(309.772 -3.53379 0)
(206.665 -1.20084 0)
(20.5594 3.82244 0)
(-22.862 5.80398 0)
(5.78147 7.12934 0)
(42.9515 6.97638 0)
(68.7895 5.8275 0)
(72.8069 3.68114 0)
(64.3367 0.855149 0)
(59.1838 -0.735444 0)
(71.3036 0.170884 0)
(94.8866 2.2011 0)
(122.496 2.9459 0)
(150.236 2.75275 0)
(172.273 2.57066 0)
(187.114 3.00267 0)
(199.6 4.78926 0)
(214.982 5.54214 0)
(235.281 5.23052 0)
(261.291 4.66751 0)
(295.216 4.10726 0)
(344.074 3.85621 0)
(375.182 3.49273 0)
(367.369 3.23724 0)
(316.66 2.331 0)
(196.888 1.04249 0)
(69.6274 1.46351 0)
(58.8193 2.8173 0)
(81.4227 3.48421 0)
(114.022 3.53408 0)
(142.218 2.49995 0)
(160.547 0.606731 0)
(170.866 -1.23459 0)
(169.838 -3.53145 0)
(164.219 -5.25156 0)
(161.004 -6.30773 0)
(165.277 -6.07176 0)
(177.81 -4.92438 0)
(192.965 -3.72046 0)
(209.658 -1.39302 0)
(223.944 1.01144 0)
(232.845 2.36947 0)
(238.323 2.10181 0)
(241.696 0.108618 0)
(253.165 -1.18897 0)
(273.886 -1.44264 0)
(284.705 -1.15852 0)
(277.209 -1.52179 0)
(236.646 -2.29845 0)
(134.679 -3.04097 0)
(81.6611 -2.95302 0)
(81.3079 -2.55375 0)
(93.0629 -2.00006 0)
(113.142 -1.88993 0)
(130.844 -1.93651 0)
(142.135 -1.87247 0)
(150.723 -1.53096 0)
(161.708 -0.883649 0)
(176.851 -0.666552 0)
(195.418 -1.47773 0)
(214.266 -1.66688 0)
(229.995 -3.12082 0)
(239.4 -6.21671 0)
(240.668 -9.56903 0)
(236.125 -11.232 0)
(230.685 -11.5283 0)
(228.582 -10.5776 0)
(234.385 -8.5704 0)
(251.558 -6.29784 0)
(264.351 -4.71334 0)
(270.41 -3.98223 0)
(255.087 -3.39747 0)
(191.585 -3.69781 0)
(126.509 -4.34458 0)
(110.127 -4.94788 0)
(103.871 -5.27379 0)
(109.897 -5.71754 0)
(123.821 -6.25794 0)
(136.315 -5.52463 0)
(143.403 -4.32769 0)
(148.82 -3.50545 0)
(155.507 -3.04575 0)
(165.456 -2.14289 0)
(179.311 -0.279364 0)
(196.11 1.41301 0)
(213.703 2.63766 0)
(228.923 3.10368 0)
(240.315 2.52305 0)
(248.424 1.16038 0)
(253.618 -0.786794 0)
(259.092 -2.48313 0)
(264.53 -3.66028 0)
(264.628 -3.85398 0)
(259.221 -3.74439 0)
(248.255 -3.69326 0)
(204.425 -3.64332 0)
(135.521 -2.81841 0)
(114.819 -1.99364 0)
(118.661 -1.34783 0)
(129.499 -0.769665 0)
(145.441 -0.706452 0)
(161.05 -0.99496 0)
(172.028 -1.83557 0)
(180.401 -2.57267 0)
(186.101 -2.81495 0)
(191.658 -2.91775 0)
(194.618 -3.63017 0)
(197.929 -4.39316 0)
(202.936 -4.94412 0)
(208.046 -4.65636 0)
(211.077 -3.98594 0)
(213.322 -3.00726 0)
(216.691 -1.50845 0)
(221.321 0.0488177 0)
(229.565 1.40376 0)
(240.881 2.22784 0)
(252.807 2.64344 0)
(254.806 2.83089 0)
(247.577 2.95036 0)
(225.15 2.79778 0)
(172.112 2.49912 0)
(136.34 2.58766 0)
(134.611 2.71607 0)
(139.935 2.85012 0)
(153.101 2.81481 0)
(171.329 2.33308 0)
(183.059 1.13008 0)
(187.724 -1.0147 0)
(191.084 -2.80145 0)
(195.16 -3.95769 0)
(200.455 -5.11611 0)
(207.149 -6.39952 0)
(214.643 -7.6089 0)
(220.279 -8.24853 0)
(220.231 -8.11088 0)
(215.13 -7.52362 0)
(206.63 -6.25947 0)
(198.366 -4.40737 0)
(194.323 -1.63877 0)
(197.581 1.38824 0)
(209.643 3.9134 0)
(224.528 5.93932 0)
(231.812 7.56745 0)
(231.114 8.61246 0)
(213.021 8.91082 0)
(176.973 8.10569 0)
(161.679 6.64461 0)
(162.349 4.82785 0)
(167.09 2.51215 0)
(177.353 -0.15808 0)
(183.478 -2.50464 0)
(184.804 -3.84762 0)
(184.353 -4.50174 0)
(186.079 -5.19436 0)
(192.155 -6.02198 0)
(201.693 -5.81041 0)
(213.557 -5.80511 0)
(223.027 -5.48334 0)
(226.094 -4.60065 0)
(222.376 -3.85178 0)
(213.929 -2.52947 0)
(205.351 -1.25654 0)
(201.4 -0.10641 0)
(200.119 1.20397 0)
(202.459 2.69109 0)
(206.059 4.02771 0)
(203.926 4.5654 0)
(198.122 4.9434 0)
(180.158 5.23479 0)
(147.82 5.47688 0)
(133.441 5.57013 0)
(134.463 5.7678 0)
(140.799 6.1516 0)
(151.043 6.32559 0)
(164.829 6.43064 0)
(175.944 6.27188 0)
(181.884 6.07815 0)
(185.226 5.61501 0)
(188.825 4.95489 0)
(195.359 4.12275 0)
(207.73 3.26461 0)
(224.317 2.3728 0)
(234.326 1.34854 0)
(235.982 0.718879 0)
(236.27 0.358127 0)
(236.012 0.242977 0)
(236.327 0.477138 0)
(238.766 0.769876 0)
(243.433 1.16029 0)
(248.559 1.35267 0)
(251.42 1.55867 0)
(248.797 1.86283 0)
(231.044 2.31523 0)
(189.241 2.74807 0)
(159.667 3.00262 0)
(153.604 2.9079 0)
(153.475 2.7565 0)
(158.47 2.49614 0)
(169.124 2.2791 0)
(179.559 2.05334 0)
(184.458 1.71686 0)
(186.245 1.28205 0)
(187.15 0.875615 0)
(187.271 0.377187 0)
(188.41 -0.273749 0)
(192.313 -0.652668 0)
(202.522 -0.82837 0)
(219.554 -0.896502 0)
(231.075 -0.0734903 0)
(235.718 1.10796 0)
(237.792 2.31495 0)
(239.074 2.93292 0)
(240.831 3.47476 0)
(246.61 3.80929 0)
(254.698 3.92484 0)
(256.052 3.87392 0)
(253.926 3.72602 0)
(236.714 3.61859 0)
(191.127 3.55231 0)
(161.187 3.54492 0)
(158.315 3.591 0)
(159.347 3.66855 0)
(165.375 3.66421 0)
(177.147 3.41789 0)
(185.622 3.31426 0)
(187.714 3.09982 0)
(188.798 2.84461 0)
(189.744 2.78438 0)
(190.558 2.96502 0)
(191.933 3.23058 0)
(193.813 3.85414 0)
(198.049 4.4771 0)
(208.679 5.07976 0)
(224.752 5.38741 0)
(234.318 5.63833 0)
(237.878 5.63927 0)
(240.074 5.40839 0)
(243.419 5.09016 0)
(249.007 4.5659 0)
(258.717 3.84482 0)
(269.759 2.81287 0)
(275.113 1.45196 0)
(273.721 0.175909 0)
(257.844 -1.11953 0)
(211.748 -1.86501 0)
(172.144 -2.51623 0)
(164.537 -3.08508 0)
(163.663 -3.25104 0)
(165.469 -3.09775 0)
(168.176 -1.99638 0)
(168.224 -0.680724 0)
(169.707 1.57903 0)
(168.748 2.69391 0)
(167.475 3.25358 0)
(167.843 3.59146 0)
(170.269 3.73689 0)
(173.082 4.58276 0)
(184.498 4.79781 0)
(-2339.13 -1.14695 0)
(-795.094 11.6126 0)
(156.554 11.7395 0)
(-14.0273 -0.859583 0)
(-159.088 -17.9126 0)
(-218.493 -21.3255 0)
(-218.626 -18.8662 0)
(-203.499 -14.3029 0)
(-164.292 -3.54799 0)
(-102.989 6.16624 0)
(-25.2391 10.9708 0)
(63.2116 12.0016 0)
(159.946 10.8103 0)
(260.956 9.20118 0)
(348.922 7.44501 0)
(404.079 4.75657 0)
(413.191 3.84686 0)
(399.843 3.38628 0)
(382.454 3.84497 0)
(369.935 5.37683 0)
(367.331 6.47973 0)
(308.68 5.45427 0)
(66.6496 1.83477 0)
(-92.6624 0.304095 0)
(-85.2501 -1.53615 0)
(-64.6548 -5.8358 0)
(-38.3732 -11.5046 0)
(-19.1476 -16.4437 0)
(-2.9952 -15.2814 0)
(14.379 -10.6433 0)
(34.3945 -5.20994 0)
(56.2224 -0.550953 0)
(81.5603 0.678463 0)
(112.215 0.807347 0)
(147.925 2.68583 0)
(186.587 4.91093 0)
(225.599 3.05879 0)
(263.548 -4.76688 0)
(300.588 -15.6463 0)
(336.129 -23.8398 0)
(351.835 -20.59 0)
(346.6 -9.30659 0)
(324.063 0.793114 0)
(219.546 6.71903 0)
(23.3822 17.2114 0)
(-24.3091 18.6885 0)
(0.892602 19.5962 0)
(33.8059 15.2869 0)
(58.9544 6.79499 0)
(66.0628 -1.72974 0)
(61.1755 -6.2319 0)
(61.3632 -5.07558 0)
(74.7475 -0.594655 0)
(98.9131 3.77477 0)
(126.627 5.30276 0)
(153.083 5.24873 0)
(173.796 4.92948 0)
(187.992 5.65796 0)
(199.842 8.63114 0)
(214.846 9.66127 0)
(234.364 8.71102 0)
(259.592 7.04153 0)
(293.047 5.01477 0)
(342.389 4.01799 0)
(375.063 3.63568 0)
(368.462 6.02073 0)
(322.135 9.29579 0)
(198.544 9.51297 0)
(69.9084 11.0951 0)
(59.1825 12.4794 0)
(79.7261 13.5537 0)
(109.784 11.9476 0)
(135.63 7.40605 0)
(152.013 0.306034 0)
(160.184 -8.6663 0)
(162.403 -15.9705 0)
(163.146 -18.1699 0)
(165.25 -15.7195 0)
(171.686 -11.5962 0)
(183.886 -7.12704 0)
(198.807 -3.26727 0)
(212.132 1.12986 0)
(222.863 3.34286 0)
(230.715 2.35134 0)
(233.68 -2.70884 0)
(238.505 -7.26054 0)
(254.46 -8.94774 0)
(279.798 -5.54155 0)
(288.446 0.557205 0)
(280.346 2.19665 0)
(236.414 1.5195 0)
(132.64 -2.80206 0)
(82.0676 -5.62594 0)
(82.1981 -5.47859 0)
(95.0099 -4.38078 0)
(115.802 -3.34802 0)
(133.468 -2.41111 0)
(144.449 -1.41058 0)
(152.251 0.298146 0)
(161.804 1.59941 0)
(174.978 0.936676 0)
(190.636 -1.46512 0)
(206.784 -6.20061 0)
(221.639 -13.3887 0)
(231.928 -23.051 0)
(236.469 -30.9027 0)
(235.646 -33.9087 0)
(234.275 -32.3291 0)
(234.413 -28.1226 0)
(242.613 -22.5003 0)
(260.602 -15.2302 0)
(271.481 -9.76579 0)
(275.063 -8.55182 0)
(256.13 -8.32434 0)
(188.166 -9.47388 0)
(123.331 -13.5066 0)
(108.524 -15.0052 0)
(104.703 -14.7094 0)
(112.35 -14.3662 0)
(127.303 -13.0078 0)
(140.031 -9.36554 0)
(147.026 -5.24049 0)
(152.164 -2.22943 0)
(158.435 -0.697264 0)
(167.532 0.730222 0)
(180.365 2.04796 0)
(196.563 4.03501 0)
(214.08 5.53057 0)
(229.491 6.20404 0)
(241.121 5.42516 0)
(248.979 4.06866 0)
(253.206 2.9367 0)
(257.377 2.06846 0)
(262.674 0.665531 0)
(264.305 0.678439 0)
(259.42 1.02022 0)
(249.47 0.856938 0)
(206.259 1.49024 0)
(137.218 3.62304 0)
(115.74 5.18777 0)
(119.276 6.04443 0)
(128.884 6.36198 0)
(143.879 4.98362 0)
(159.167 2.70079 0)
(169.334 0.27307 0)
(176.754 -2.28444 0)
(182.232 -4.77604 0)
(188.247 -6.12667 0)
(192.029 -7.94689 0)
(195.925 -9.71672 0)
(201.372 -11.0236 0)
(207.585 -11.6921 0)
(211.811 -10.8997 0)
(213.423 -9.24345 0)
(217.629 -7.47595 0)
(222.902 -6.44178 0)
(231.622 -5.72336 0)
(243.249 -4.77995 0)
(254.827 -3.2432 0)
(256.471 -1.9465 0)
(250.556 0.215104 0)
(229.152 3.10674 0)
(175.379 5.17383 0)
(139.464 6.79032 0)
(137.59 7.98118 0)
(142.358 8.99242 0)
(153.953 9.51149 0)
(170.626 8.60253 0)
(180.747 5.81799 0)
(183.256 1.79343 0)
(185.504 -2.25439 0)
(189.118 -6.75246 0)
(194.542 -11.2158 0)
(201.216 -15.8003 0)
(208.679 -20.8158 0)
(216.463 -25.225 0)
(219.046 -27.728 0)
(216.36 -26.9473 0)
(210.781 -23.4452 0)
(204.938 -17.2233 0)
(203.056 -8.33378 0)
(207.724 0.439197 0)
(220.071 8.97061 0)
(232.576 17.19 0)
(236.615 22.4235 0)
(234.435 25.5121 0)
(213.409 27.1237 0)
(174.384 25.5154 0)
(158.66 21.2926 0)
(158.863 17.0268 0)
(163.656 12.215 0)
(173.912 7.42356 0)
(180.404 3.36886 0)
(180.975 0.890319 0)
(179.854 -1.48257 0)
(181.415 -4.27339 0)
(186.3 -8.21595 0)
(195.796 -12.1457 0)
(207.651 -16.1319 0)
(219.698 -18.9569 0)
(224.667 -20.0965 0)
(222.599 -20.7854 0)
(216.157 -19.9513 0)
(207.961 -17.7955 0)
(204.388 -14.7504 0)
(205.161 -10.9482 0)
(209.019 -5.14596 0)
(213.175 1.45289 0)
(210.532 7.6217 0)
(203.754 12.3012 0)
(183.987 14.5256 0)
(149.986 15.0248 0)
(135.876 14.8534 0)
(136.887 15.4354 0)
(142.921 16.5695 0)
(152.833 17.3278 0)
(166.122 18.0272 0)
(176.171 18.2703 0)
(180.797 17.7988 0)
(183.006 16.56 0)
(185.859 15.0445 0)
(191.956 13.5889 0)
(204.058 11.3731 0)
(221.192 8.54029 0)
(233.048 6.17483 0)
(235.422 5.26353 0)
(235.778 4.94 0)
(235.334 4.65577 0)
(235.65 4.57675 0)
(238.255 4.60061 0)
(243.549 4.47169 0)
(249.167 4.35228 0)
(251.961 4.34582 0)
(249.462 4.29018 0)
(232.468 4.59955 0)
(191.42 5.07761 0)
(162.123 5.21697 0)
(156.633 4.79265 0)
(156.599 4.44622 0)
(161.211 4.11967 0)
(171.166 3.99508 0)
(180.832 3.60149 0)
(184.855 2.4309 0)
(185.593 0.666726 0)
(185.959 -1.01263 0)
(186.529 -2.23578 0)
(188.079 -3.04877 0)
(192.36 -3.28464 0)
(202.377 -3.2426 0)
(218.814 -3.25368 0)
(231.225 -2.51538 0)
(235.947 -1.51155 0)
(238.237 -0.679886 0)
(240.181 -0.380134 0)
(242.777 0.329993 0)
(249.754 1.82243 0)
(257.596 3.86091 0)
(258.432 5.17602 0)
(255.512 6.07689 0)
(237.049 6.30533 0)
(190.836 5.76023 0)
(161.376 5.53144 0)
(158.603 5.9001 0)
(159.983 6.55895 0)
(166.145 7.33844 0)
(177.888 7.64976 0)
(186.091 7.94913 0)
(187.612 7.8058 0)
(188.439 7.04064 0)
(189.489 5.78524 0)
(190.892 4.33922 0)
(192.485 2.98428 0)
(194.693 2.11691 0)
(199.866 1.76715 0)
(211.846 2.20164 0)
(229.098 3.6757 0)
(238.77 6.20308 0)
(242.066 7.64812 0)
(243.69 8.86495 0)
(245.948 9.55175 0)
(250.5 9.85078 0)
(259 9.34983 0)
(267.917 7.5782 0)
(271.687 4.51258 0)
(269.047 1.07253 0)
(252.344 -3.04165 0)
(207.822 -6.84175 0)
(170.564 -9.25696 0)
(163.425 -10.1258 0)
(163.154 -10.2974 0)
(165.91 -10.5432 0)
(170.793 -9.1192 0)
(171.594 -5.79444 0)
(173.477 -1.88036 0)
(172.01 1.13713 0)
(170.042 3.22089 0)
(170.086 3.63533 0)
(172.381 3.07984 0)
(175.566 3.80758 0)
(187.345 4.11782 0)
(-2337.25 -0.833257 0)
(-796.595 11.7712 0)
(125.849 11.6637 0)
(-42.0664 -4.20402 0)
(-172.275 -20.9411 0)
(-215.177 -27.7313 0)
(-210.746 -24.7306 0)
(-189.497 -18.4544 0)
(-147.999 -3.93291 0)
(-89.6787 8.91814 0)
(-17.9579 15.7107 0)
(63.8398 18.0461 0)
(155.522 16.9071 0)
(254.424 15.2376 0)
(343.508 13.1204 0)
(399.068 9.13574 0)
(408.205 6.77091 0)
(395.157 5.76185 0)
(379.032 6.22575 0)
(368.034 9.67373 0)
(367.7 11.4746 0)
(305.603 11.021 0)
(56.1646 5.22538 0)
(-95.4493 1.71928 0)
(-93.0645 -2.05082 0)
(-74.84 -9.23176 0)
(-47.9702 -17.7603 0)
(-22.5242 -23.9184 0)
(2.05802 -21.2054 0)
(24.4507 -15.3153 0)
(44.8581 -9.14094 0)
(64.4042 -3.39174 0)
(87.6763 -1.61168 0)
(116.816 0.46215 0)
(150.599 4.18435 0)
(186.074 6.6813 0)
(220.756 3.03643 0)
(253.367 -8.8454 0)
(289.656 -22.0694 0)
(335.024 -30.693 0)
(364.518 -27.8229 0)
(365.742 -13.5893 0)
(344.106 -3.00331 0)
(242.199 6.3189 0)
(33.9498 23.1891 0)
(-21.4174 25.2771 0)
(-2.27355 26.4005 0)
(23.9184 20.3394 0)
(47.0856 8.2391 0)
(56.8857 -3.50566 0)
(59.5588 -8.87869 0)
(67.7737 -4.98971 0)
(83.2704 3.15426 0)
(105.913 10.2373 0)
(131.841 11.4987 0)
(156.244 9.56137 0)
(175.658 8.27035 0)
(189.429 9.099 0)
(200.503 12.5661 0)
(214.424 13.2706 0)
(232.361 11.8822 0)
(256.03 9.77745 0)
(288.229 7.54044 0)
(336.685 6.79564 0)
(370.004 5.86476 0)
(365.88 8.1963 0)
(326.092 12.539 0)
(197.389 12.6878 0)
(69.2623 14.1407 0)
(58.3422 15.5555 0)
(74.4369 16.8308 0)
(100.205 14.2031 0)
(123.079 6.07388 0)
(136.965 -4.13413 0)
(144.097 -14.6787 0)
(151.188 -21.2791 0)
(159.715 -22.5931 0)
(169.097 -18.2376 0)
(179.823 -12.674 0)
(191.908 -6.73939 0)
(205.13 -2.4689 0)
(215.529 1.58575 0)
(222.006 2.97629 0)
(226.159 0.584814 0)
(227.033 -5.54749 0)
(234.942 -10.045 0)
(256.947 -10.8087 0)
(287.303 -5.6942 0)
(294.409 0.465446 0)
(284.035 3.33422 0)
(233.98 2.58642 0)
(127.201 -3.31878 0)
(80.7625 -7.03709 0)
(82.4159 -6.76801 0)
(96.9166 -5.52994 0)
(118.996 -4.01271 0)
(137.102 -2.37862 0)
(148.318 -0.841802 0)
(155.085 1.70827 0)
(161.663 3.44057 0)
(171.107 1.62127 0)
(182.685 -3.76707 0)
(194.88 -10.4023 0)
(206.956 -19.8672 0)
(218.597 -30.7188 0)
(227.083 -39.6074 0)
(233.088 -43.4323 0)
(236.824 -42.0503 0)
(240.531 -37.129 0)
(251.38 -30.8109 0)
(269.98 -23.4824 0)
(276.448 -18.2939 0)
(277.98 -16.3419 0)
(256.78 -14.4764 0)
(184.398 -15.7925 0)
(118.847 -18.8067 0)
(106.611 -20.7746 0)
(106.121 -20.9111 0)
(115.481 -21.3258 0)
(131.103 -19.5177 0)
(144.215 -14.6383 0)
(151.862 -9.10695 0)
(157.292 -4.43925 0)
(163.036 -1.12018 0)
(171.107 0.721271 0)
(183.061 1.63054 0)
(198.728 3.747 0)
(215.648 5.59926 0)
(230.396 6.90875 0)
(240.674 6.45275 0)
(247.145 4.09499 0)
(250.256 1.91715 0)
(254.086 0.143143 0)
(260.401 -1.79255 0)
(264.452 -1.67706 0)
(260.585 -1.47132 0)
(251.381 -1.83579 0)
(209.846 -0.589387 0)
(140.99 2.99994 0)
(118.047 5.95585 0)
(120.563 7.44648 0)
(127.193 8.17256 0)
(140.189 5.79803 0)
(155.331 2.72814 0)
(165.669 -1.28793 0)
(172.976 -4.37243 0)
(178.977 -7.05214 0)
(185.299 -8.50847 0)
(190.166 -10.3275 0)
(195.069 -12.2919 0)
(201.526 -13.8544 0)
(209.809 -14.2711 0)
(216.088 -12.8071 0)
(218.231 -10.0386 0)
(221.811 -7.6814 0)
(226.961 -7.01412 0)
(234.269 -7.07633 0)
(246.623 -6.44649 0)
(258.009 -4.77969 0)
(259.316 -2.45366 0)
(255.21 1.5535 0)
(234.152 5.51736 0)
(178.833 8.15109 0)
(142.299 10.4857 0)
(140.573 11.4752 0)
(144.271 12.2743 0)
(153.52 12.381 0)
(166.791 10.6766 0)
(174.284 5.66549 0)
(175.735 0.110258 0)
(177.844 -5.58421 0)
(181.922 -10.9809 0)
(187.293 -16.4922 0)
(193.352 -22.2849 0)
(201.139 -27.7727 0)
(211.587 -32.3865 0)
(219.751 -35.4481 0)
(221.595 -34.4792 0)
(219.811 -30.4128 0)
(218.891 -21.9349 0)
(219.684 -10.8123 0)
(224.315 0.903345 0)
(236.29 12.3931 0)
(245.829 23.3647 0)
(245.628 30.8883 0)
(239.729 35.6746 0)
(212.467 37.6775 0)
(166.279 34.2836 0)
(148.819 27.0441 0)
(149.224 19.9855 0)
(154.703 13.9032 0)
(166.092 8.03099 0)
(174.552 2.95111 0)
(174.734 -0.492343 0)
(174.479 -3.99888 0)
(176.623 -7.50513 0)
(181.608 -11.8792 0)
(190.701 -15.98 0)
(203.181 -19.5992 0)
(218.188 -22.3314 0)
(224.543 -24.1843 0)
(223.481 -25.7865 0)
(219.168 -26.5474 0)
(214.266 -25.8725 0)
(213.012 -22.2452 0)
(216.563 -16.3264 0)
(221.634 -6.89889 0)
(223.212 3.28833 0)
(219.49 12.6175 0)
(210.208 19.5885 0)
(186.647 23.2047 0)
(149.924 24.4318 0)
(136.856 24.6959 0)
(138.287 25.6663 0)
(144.586 27.0809 0)
(154.645 27.9574 0)
(167.408 28.5368 0)
(176.172 28.3833 0)
(179.156 27.1135 0)
(179.765 24.9721 0)
(182.12 22.7712 0)
(188.188 20.6778 0)
(200.235 17.7163 0)
(218.036 14.0729 0)
(231.492 10.9931 0)
(234.87 9.5725 0)
(235.29 9.4208 0)
(234.623 9.23767 0)
(234.817 9.23143 0)
(237.045 9.01761 0)
(242.11 8.68504 0)
(247.933 8.23123 0)
(251.114 7.8571 0)
(248.933 7.3605 0)
(233.295 7.13814 0)
(193.404 7.39872 0)
(163.69 7.64992 0)
(158.569 7.40261 0)
(158.38 7.06075 0)
(162.169 6.53073 0)
(171.097 6.11069 0)
(180.111 5.42803 0)
(183.153 3.76236 0)
(183.213 1.76807 0)
(183.429 -0.280986 0)
(184.406 -1.98985 0)
(186.571 -3.17375 0)
(191.458 -3.68377 0)
(201.82 -3.69556 0)
(218.35 -3.33597 0)
(231.856 -2.04914 0)
(236.281 -0.405804 0)
(238.181 0.837139 0)
(240.36 1.85293 0)
(243.869 3.28483 0)
(252.151 5.42621 0)
(258.741 7.62479 0)
(259.027 8.81672 0)
(255.654 9.73066 0)
(236.005 9.84351 0)
(188.902 8.8164 0)
(161.11 8.14395 0)
(158.835 8.47143 0)
(160.899 9.09073 0)
(167.39 9.93866 0)
(178.75 10.3348 0)
(186.234 10.2022 0)
(187.819 9.90893 0)
(187.939 9.44928 0)
(188.156 8.52706 0)
(189.254 7.29026 0)
(190.486 5.80763 0)
(193.287 4.66694 0)
(200.26 4.30521 0)
(214.415 5.49945 0)
(232.226 7.61347 0)
(241.158 9.55638 0)
(244.084 10.7289 0)
(245.521 11.6524 0)
(246.763 11.9512 0)
(249.807 11.7435 0)
(255.338 10.2807 0)
(261.402 6.57117 0)
(263.91 1.37359 0)
(259.926 -3.69198 0)
(243.218 -9.15001 0)
(202.206 -13.365 0)
(168.734 -15.035 0)
(162.385 -15.0574 0)
(163.752 -14.6932 0)
(168.265 -14.1274 0)
(175.883 -12.3576 0)
(178.489 -8.40827 0)
(179.582 -4.18229 0)
(177.437 -0.510283 0)
(173.684 2.89159 0)
(172.228 4.85339 0)
(174.03 5.09783 0)
(176.92 7.0109 0)
(188.847 7.76592 0)
(-2336.51 -0.0334411 0)
(-805.171 6.42284 0)
(101.334 -4.68667 0)
(-62.3218 -17.4127 0)
(-184.774 -23.2524 0)
(-215.284 -26.9454 0)
(-201.981 -24.4166 0)
(-175.318 -17.8784 0)
(-129.356 -5.27272 0)
(-73.1753 7.16738 0)
(-7.92014 17.747 0)
(66.6335 22.6893 0)
(151.921 23.3507 0)
(247.337 22.8972 0)
(335.328 18.7328 0)
(390.57 14.1051 0)
(400.367 8.57685 0)
(389.205 7.37972 0)
(376.3 8.6624 0)
(367.79 14.3098 0)
(369.337 16.9638 0)
(301.492 16.2947 0)
(40.5158 8.90644 0)
(-100.315 2.92691 0)
(-104.598 -3.4376 0)
(-86.5249 -11.6868 0)
(-55.7365 -21.3751 0)
(-22.6549 -26.7074 0)
(8.57802 -24.1693 0)
(35.9363 -19.3145 0)
(58.4594 -13.3082 0)
(77.1896 -6.27913 0)
(98.3002 -3.41881 0)
(124.028 1.23163 0)
(153.686 5.20223 0)
(184.694 6.52238 0)
(214.299 1.30338 0)
(242.073 -10.3849 0)
(278.619 -22.0534 0)
(331.615 -29.6516 0)
(376.399 -29.2229 0)
(388.357 -19.3739 0)
(371.166 -10.9305 0)
(273.267 2.71156 0)
(50.4027 22.9386 0)
(-17.3194 29.3659 0)
(-7.26832 28.4657 0)
(12.5097 22.0124 0)
(34.9981 9.96146 0)
(48.6928 -2.13047 0)
(61.1694 -7.04151 0)
(76.2225 -3.6913 0)
(94.324 3.7703 0)
(116.164 10.741 0)
(139.66 12.8504 0)
(160.742 12.4685 0)
(177.061 12.5426 0)
(188.819 14.0425 0)
(199.158 16.5069 0)
(212.104 15.8383 0)
(228.477 13.8213 0)
(250.673 11.3442 0)
(281.829 9.31855 0)
(328.913 8.85984 0)
(360.907 8.09201 0)
(361.38 9.42623 0)
(327.401 11.2099 0)
(194.275 10.6709 0)
(69.7494 12.6079 0)
(56.0225 15.7576 0)
(66.1013 15.785 0)
(86.9736 12.0424 0)
(106.617 2.56773 0)
(119.325 -7.80484 0)
(129.074 -16.4285 0)
(141.419 -20.3026 0)
(156.259 -20.3134 0)
(171.817 -16.8488 0)
(186.836 -12.818 0)
(200.073 -8.51503 0)
(210.382 -3.87449 0)
(217.122 -0.31828 0)
(218.797 0.664582 0)
(218.972 -2.45005 0)
(221.587 -6.8589 0)
(233.588 -9.84348 0)
(261.022 -8.97754 0)
(292.726 -3.95881 0)
(300.97 0.673559 0)
(288.283 3.94571 0)
(230.005 3.63972 0)
(120.216 -2.391 0)
(79.553 -5.94758 0)
(83.2467 -5.82335 0)
(99.6453 -4.33855 0)
(123.119 -2.47831 0)
(141.736 -0.265671 0)
(153.258 1.91555 0)
(158.286 4.40409 0)
(160.365 5.30876 0)
(164.715 2.0925 0)
(170.903 -6.06254 0)
(180.297 -14.9633 0)
(192.89 -24.1903 0)
(207.687 -33.0441 0)
(219.841 -40.7785 0)
(230.588 -43.8641 0)
(239.87 -43.51 0)
(247.567 -39.3162 0)
(260.053 -35.0384 0)
(277.333 -29.8199 0)
(283.242 -26.0431 0)
(280.878 -23.5783 0)
(257.473 -20.8788 0)
(181.786 -19.8024 0)
(114.139 -20.6305 0)
(103.848 -22.5704 0)
(106.31 -22.7775 0)
(118.215 -23.3182 0)
(136.365 -21.5151 0)
(150.904 -16.5145 0)
(159.47 -10.9912 0)
(164.411 -5.76091 0)
(168.817 -1.75972 0)
(175.081 0.518125 0)
(185.428 2.90408 0)
(200.306 5.38702 0)
(217.108 7.16561 0)
(230.664 7.99484 0)
(238.841 6.8764 0)
(244.008 4.9175 0)
(245.572 2.1027 0)
(248.655 -0.652478 0)
(255.75 -3.65838 0)
(262.109 -4.89439 0)
(260.266 -5.33421 0)
(253.252 -5.87875 0)
(214.987 -4.53761 0)
(147.313 0.696464 0)
(121.702 5.05527 0)
(122.615 6.87962 0)
(125.529 7.85813 0)
(135.704 5.19468 0)
(150.195 2.28748 0)
(161.232 -1.54085 0)
(168.661 -4.36245 0)
(175.359 -6.63554 0)
(182.294 -7.82738 0)
(188.222 -9.36726 0)
(194.555 -11.2032 0)
(202.364 -13.3022 0)
(212.44 -13.2816 0)
(220.181 -11.9129 0)
(223.508 -9.9595 0)
(226.046 -8.27185 0)
(229.717 -7.20006 0)
(236.049 -6.34713 0)
(249.372 -5.48676 0)
(261.638 -4.71754 0)
(263.439 -2.32864 0)
(262.224 2.32665 0)
(241.707 6.81177 0)
(183.865 9.83168 0)
(145.465 12.3597 0)
(143.034 13.151 0)
(145.402 13.2021 0)
(151.676 12.4197 0)
(161.073 9.92034 0)
(166.254 4.15656 0)
(166.976 -2.25588 0)
(169.433 -9.08482 0)
(173.783 -14.6732 0)
(179.311 -20.0173 0)
(184.951 -25.1692 0)
(193.229 -29.7655 0)
(205.5 -33.5113 0)
(217.867 -36.2386 0)
(224.479 -35.6969 0)
(228.111 -32.1905 0)
(231.609 -25.0898 0)
(236.181 -14.2614 0)
(243.74 -1.1673 0)
(255.749 13.308 0)
(261.395 26.225 0)
(256.865 35.7709 0)
(244.871 41.2329 0)
(207.216 42.255 0)
(153.19 35.7764 0)
(136.917 26.683 0)
(138.247 19.8328 0)
(144.707 13.8924 0)
(156.321 7.60624 0)
(165.634 1.31767 0)
(168.02 -3.14803 0)
(169.357 -5.67263 0)
(171.943 -8.25587 0)
(177.083 -11.4275 0)
(185.68 -14.5007 0)
(198.364 -17.4011 0)
(213.685 -19.6947 0)
(220.32 -23.8808 0)
(219.938 -26.6876 0)
(217.168 -29.0713 0)
(216.188 -29.6947 0)
(219.798 -28.7108 0)
(227.212 -22.8155 0)
(236.18 -13.59 0)
(239.055 -2.16923 0)
(235.908 9.83629 0)
(223.303 20.8773 0)
(192.607 27.8656 0)
(151.777 30.8266 0)
(139.66 32.2706 0)
(141.153 33.6601 0)
(147.477 35.463 0)
(157.1 36.6022 0)
(168.601 36.8553 0)
(175.91 36.4775 0)
(177.046 34.4877 0)
(175.862 31.8721 0)
(177.569 28.88 0)
(183.266 25.7427 0)
(195.199 22.5214 0)
(213.488 18.3683 0)
(228.706 14.9477 0)
(233.847 13.0416 0)
(235.07 12.6555 0)
(235.05 12.7611 0)
(235.522 13.1329 0)
(237.818 12.9669 0)
(242.976 12.3752 0)
(248.4 11.8984 0)
(251.302 10.799 0)
(248.822 9.86222 0)
(234.009 9.06261 0)
(194.993 8.91461 0)
(164.252 8.77939 0)
(159.242 8.15541 0)
(158.924 7.47663 0)
(162.119 6.64015 0)
(170.424 6.01212 0)
(178.043 5.31322 0)
(179.878 3.4405 0)
(179.407 1.30541 0)
(179.678 -1.12892 0)
(181.37 -2.96188 0)
(184.352 -4.02072 0)
(190.148 -4.45699 0)
(201.193 -4.68247 0)
(218.224 -4.33265 0)
(233.328 -3.31343 0)
(238.917 -0.952116 0)
(240.832 1.58094 0)
(242.814 4.33865 0)
(247.263 7.02674 0)
(255.184 9.79525 0)
(260.119 11.4974 0)
(259.988 12.373 0)
(256.154 12.7602 0)
(234.921 12.4012 0)
(186.23 10.3714 0)
(160.679 9.1783 0)
(158.861 9.22678 0)
(161.641 9.5774 0)
(168.148 10.3725 0)
(178.838 10.7205 0)
(185.768 10.3845 0)
(187.266 10.1036 0)
(187.039 9.79553 0)
(186.563 9.12059 0)
(187.031 8.27375 0)
(188.23 7.55245 0)
(192.115 7.08676 0)
(201.115 7.00638 0)
(217.475 8.01655 0)
(235.058 9.55558 0)
(242.226 10.4413 0)
(244.486 10.7659 0)
(245.193 10.8891 0)
(245.296 10.6727 0)
(246.5 9.2695 0)
(250.004 6.04429 0)
(253.204 0.901728 0)
(253.845 -5.37704 0)
(249.123 -12.0154 0)
(234.255 -18.3472 0)
(199.722 -21.1925 0)
(169.205 -20.698 0)
(162.853 -19.7003 0)
(164.534 -18.7889 0)
(169.703 -17.6135 0)
(179.014 -16.3997 0)
(184.316 -13.0435 0)
(184.655 -9.26901 0)
(182.846 -5.37921 0)
(178.784 -1.67337 0)
(176.322 1.43858 0)
(177.767 3.65843 0)
(180.367 7.53174 0)
(192.052 8.81284 0)
(-2337 0.620075 0)
(-795.586 3.42986 0)
(96.8275 -21.2952 0)
(-63.0225 -31.3656 0)
(-187.72 -24.6835 0)
(-216.936 -20.5759 0)
(-196.718 -21.3193 0)
(-165.836 -16.1196 0)
(-113.702 -7.66822 0)
(-56.2767 3.9571 0)
(4.64883 14.7376 0)
(71.7559 24.8166 0)
(149.839 28.7532 0)
(240.094 28.8293 0)
(326.146 24.4965 0)
(380.672 19.3698 0)
(391.323 9.75794 0)
(383.597 8.26835 0)
(375.64 11.7628 0)
(371.263 20.6616 0)
(372.917 24.2635 0)
(296.198 23.9818 0)
(19.854 14.0125 0)
(-109.865 4.62286 0)
(-118.582 -3.55542 0)
(-97.2304 -11.2649 0)
(-60.614 -20.0529 0)
(-21.8593 -24.8725 0)
(14.6468 -23.7016 0)
(47.0546 -20.5757 0)
(73.3669 -15.6761 0)
(93.5149 -8.91707 0)
(112.45 -4.91137 0)
(132.968 1.49355 0)
(156.671 6.08469 0)
(182.667 5.37415 0)
(208.577 1.1504 0)
(235.066 -9.49691 0)
(273.418 -19.134 0)
(330.339 -23.4269 0)
(382.443 -23.5892 0)
(407.245 -20.8747 0)
(398.185 -16.3745 0)
(306.372 -6.93439 0)
(74.576 14.3307 0)
(-12.5206 26.792 0)
(-14.4082 25.29 0)
(2.52832 20.8512 0)
(25.1867 11.9307 0)
(43.9898 2.54195 0)
(62.5538 -1.36532 0)
(82.5034 0.933869 0)
(104.156 6.2289 0)
(126.651 11.7267 0)
(147.71 14.4256 0)
(165.005 15.5205 0)
(178.147 15.4686 0)
(187.508 16.6898 0)
(195.846 18.068 0)
(207.689 16.3174 0)
(223.434 13.7441 0)
(245.028 11.28 0)
(275.737 10.2862 0)
(321.245 10.7223 0)
(351.015 9.47277 0)
(355.53 8.93235 0)
(324.615 7.35668 0)
(189.295 5.38463 0)
(70.6396 7.35587 0)
(53.4166 11.1691 0)
(57.1784 10.5548 0)
(73.0984 7.16493 0)
(90.6716 -0.846944 0)
(104.106 -8.71097 0)
(117.365 -14.0001 0)
(133.639 -16.0924 0)
(152.743 -15.3008 0)
(172.564 -13.0386 0)
(190.749 -11.1912 0)
(205.452 -8.85952 0)
(214.644 -5.46202 0)
(216.896 -2.41284 0)
(213.704 -2.6261 0)
(212.979 -5.15707 0)
(218.558 -7.07998 0)
(234.906 -7.78065 0)
(265.857 -5.30136 0)
(297.176 -0.485702 0)
(306.879 3.87759 0)
(292.15 6.91933 0)
(224.624 5.98673 0)
(113.316 -1.01807 0)
(79.2689 -3.50776 0)
(84.8113 -3.08382 0)
(102.947 -0.889651 0)
(127.817 1.40956 0)
(146.686 3.94931 0)
(158.172 5.65351 0)
(160.104 6.26244 0)
(157.092 5.43768 0)
(155.216 0.537456 0)
(157.1 -8.443 0)
(166.57 -16.7633 0)
(182.19 -23.1794 0)
(199.096 -29.7027 0)
(215.88 -34.4419 0)
(229.1 -37.5542 0)
(241.285 -37.8261 0)
(251.721 -35.8998 0)
(265.405 -34.0024 0)
(282.867 -32.4574 0)
(290.606 -29.7875 0)
(284.515 -27.5945 0)
(260.26 -24.7249 0)
(183.043 -21.692 0)
(112.115 -20.1909 0)
(102.461 -20.9608 0)
(108.167 -20.9882 0)
(121.765 -20.988 0)
(141.061 -19.0708 0)
(155.88 -14.5194 0)
(165.489 -10.5162 0)
(170.779 -6.89831 0)
(174.446 -3.07679 0)
(179.108 0.487682 0)
(188.033 3.05802 0)
(202.4 6.14831 0)
(218.37 8.19254 0)
(228.655 7.61179 0)
(235.743 5.85238 0)
(238.962 2.3323 0)
(240.669 -1.70194 0)
(242.72 -5.82108 0)
(250.553 -9.04774 0)
(258.36 -10.4384 0)
(260.478 -9.92787 0)
(255.941 -9.6911 0)
(222.118 -7.66021 0)
(155.764 -1.99314 0)
(126.434 2.41157 0)
(124.397 4.11627 0)
(124.092 4.81706 0)
(131.891 2.83205 0)
(145.584 1.04444 0)
(157.569 -1.76002 0)
(165.44 -3.28554 0)
(173.119 -4.19554 0)
(180.758 -4.26102 0)
(187.147 -5.38956 0)
(193.704 -7.05835 0)
(202.322 -9.6566 0)
(213.272 -9.36841 0)
(221.965 -8.20346 0)
(226.809 -7.21175 0)
(229.405 -5.54946 0)
(232.022 -3.847 0)
(238.24 -2.0469 0)
(252.042 -0.851462 0)
(265.591 -0.83075 0)
(267.732 0.507169 0)
(269.087 3.59957 0)
(249.291 7.11207 0)
(188.711 9.75151 0)
(147.991 11.148 0)
(144.546 11.0894 0)
(145.39 10.233 0)
(149.553 8.33189 0)
(155.126 4.86903 0)
(158.111 0.0868745 0)
(158.538 -5.0112 0)
(161.638 -10.7277 0)
(166.605 -14.991 0)
(172.549 -18.9228 0)
(178.138 -22.813 0)
(187.06 -26.3081 0)
(200.723 -29.2065 0)
(215.919 -30.9487 0)
(226.617 -30.0054 0)
(234.82 -27.0669 0)
(242.767 -21.4104 0)
(251.038 -12.194 0)
(262.682 -1.96369 0)
(274.584 11.1389 0)
(277.583 22.7409 0)
(269.407 31.4143 0)
(250.377 37.2804 0)
(199.747 35.833 0)
(139.526 28.0217 0)
(125.382 19.4358 0)
(127.855 14.0507 0)
(135.472 8.09099 0)
(147.197 2.31147 0)
(157.924 -2.23394 0)
(163.717 -4.03202 0)
(166.47 -4.88472 0)
(169.124 -6.08354 0)
(173.749 -7.90363 0)
(181.893 -10.0313 0)
(193.826 -12.2383 0)
(207.551 -14.9005 0)
(214.924 -19.0347 0)
(214.98 -21.4309 0)
(215.145 -23.3435 0)
(217.706 -23.6395 0)
(225.177 -23.4532 0)
(236.443 -19.0328 0)
(249.468 -12.6886 0)
(255.853 -3.38076 0)
(254.133 6.56074 0)
(240.687 17.389 0)
(202.647 27.2319 0)
(154.741 33.3111 0)
(142.603 36.6417 0)
(144.143 38.4045 0)
(150.275 40.5848 0)
(159.317 41.9046 0)
(169.471 41.8358 0)
(174.124 40.8792 0)
(173.454 39.0907 0)
(171.592 36.4859 0)
(172.889 33.7105 0)
(178.061 30.3212 0)
(189.747 27.1674 0)
(208.167 22.4749 0)
(225.01 18.5317 0)
(232.231 16 0)
(234.814 14.7846 0)
(235.746 14.8137 0)
(236.867 15.0913 0)
(239.207 15.6337 0)