/*--------------------------------*- C++ -*----------------------------------*\
| =========                 |                                                 |
| \\      /  F ield         | OpenFOAM: The Open Source CFD Toolbox           |
|  \\    /   O peration     | Version:  2306                                  |
|   \\  /    A nd           | Website:  www.openfoam.com                      |
|    \\/     M anipulation  |                                                 |
\*---------------------------------------------------------------------------*/
FoamFile
{
    version     2.0;
    format      ascii;
    arch        "LSB;label=32;scalar=64";
    class       volVectorField;
    location    "0.19";
    object      U;
}
// * * * * * * * * * * * * * * * * * * * * * * * * * * * * * * * * * * * * * //

dimensions      [0 1 -1 0 0 0 0];

internalField   nonuniform List<vector> 
6000
(
(500 3.70033e-16 0)
(500 -3.74303e-14 0)
(500 -5.94996e-14 0)
(500 -5.19186e-14 0)
(500 -1.55231e-14 0)
(500 6.17909e-14 0)
(500 -1.09407e-14 0)
(500 -1.40065e-13 0)
(500 -1.31233e-13 0)
(500 -7.57815e-14 0)
(500 -1.16349e-14 0)
(500 -7.24203e-14 0)
(500 -2.4599e-14 0)
(500 6.83437e-15 0)
(500 -6.87595e-15 0)
(500 -2.82605e-14 0)
(500 3.71348e-16 0)
(500 6.74188e-14 0)
(500 8.09411e-14 0)
(500 1.11049e-13 0)
(500 1.02439e-14 0)
(500 9.42795e-14 0)
(500 -1.0973e-13 0)
(500 -6.67228e-14 0)
(500 -1.56761e-13 0)
(500 -1.32066e-13 0)
(500 -6.19635e-14 0)
(500 1.00083e-13 0)
(500 5.05362e-14 0)
(500 5.96336e-14 0)
(500 5.73923e-14 0)
(500 9.58992e-15 0)
(500 -1.13228e-14 0)
(500 -1.01665e-13 0)
(500 2.01252e-14 0)
(500 7.80297e-14 0)
(500 2.09393e-14 0)
(500 6.13397e-14 0)
(500 -1.00606e-14 0)
(500 -6.59428e-14 0)
(500 -1.6616e-13 0)
(500 -2.19214e-13 0)
(500 -8.63163e-14 0)
(500 -3.91221e-15 0)
(500 9.58239e-14 0)
(500 7.72386e-15 0)
(500 9.70147e-14 0)
(500 1.87041e-13 0)
(500 4.1967e-14 0)
(500 -5.512e-15 0)
(500 3.33746e-14 0)
(500 1.98023e-14 0)
(500 5.26705e-15 0)
(500 -9.43171e-14 0)
(500 -2.16055e-13 0)
(500 -1.82734e-13 0)
(500 -2.04045e-13 0)
(500 -1.4194e-13 0)
(500 -1.11011e-14 0)
(500 -1.47667e-14 0)
(500 -4.3866e-14 0)
(500 -6.10863e-14 0)
(500 7.63359e-14 0)
(500 8.77524e-14 0)
(500 1.05809e-13 0)
(500 8.05894e-14 0)
(500 3.55771e-14 0)
(500 1.46622e-13 0)
(500 7.50617e-14 0)
(500 -1.94919e-13 0)
(500 -1.65316e-13 0)
(500 -1.72658e-13 0)
(500 -2.29048e-13 0)
(500 -1.54173e-13 0)
(500 -2.37121e-15 0)
(500 -6.60387e-14 0)
(500 -1.06169e-13 0)
(500 -2.94411e-13 0)
(500 -3.61769e-13 0)
(500 3.05764e-13 0)
(500 -2.95686e-12 0)
(500 8.35717e-12 0)
(500 -8.64989e-12 0)
(500 -4.08995e-11 0)
(500 2.79878e-10 0)
(500 -5.3264e-10 0)
(500 7.22493e-11 0)
(500 5.48218e-09 0)
(500 -1.68601e-08 0)
(500 2.07501e-08 0)
(500 9.42062e-08 0)
(500 -4.5866e-07 0)
(499.999 1.20555e-06 0)
(499.999 -9.50737e-07 0)
(499.997 -2.5271e-06 0)
(499.993 1.31819e-05 0)
(499.986 -1.99222e-05 0)
(499.973 6.94154e-06 0)
(499.947 8.05483e-05 0)
(499.901 -0.000181942 0)
(499.825 0.000208136 0)
(499.709 0.000242806 0)
(499.567 -0.000689359 0)
(499.453 0.000601419 0)
(499.419 0.000247719 0)
(499.419 0.000118844 0)
(499.429 -3.11613e-05 0)
(499.463 -0.000107033 0)
(499.535 -0.000153102 0)
(499.654 -6.77193e-05 0)
(499.821 0.000416243 0)
(500.031 2.72946e-05 0)
(500.273 -0.000574505 0)
(500.535 0.000899287 0)
(500.808 0.00125856 0)
(501.087 -0.00146377 0)
(501.367 -0.00162077 0)
(501.642 0.00198208 0)
(501.91 0.00319452 0)
(502.176 -0.00132755 0)
(502.436 -0.00297609 0)
(502.688 0.00200162 0)
(502.929 0.0051158 0)
(503.163 -0.000590215 0)
(503.392 -0.0053588 0)
(503.609 -0.00123387 0)
(503.809 0.00640952 0)
(503.995 0.0034264 0)
(504.171 -0.0040465 0)
(504.332 -0.00350249 0)
(504.473 0.00297086 0)
(504.592 0.00433878 0)
(504.699 -0.00125533 0)
(504.792 -0.00399684 0)
(504.872 -0.00106921 0)
(504.937 0.00324339 0)
(504.994 0.00260643 0)
(505.05 -0.0011609 0)
(505.103 -0.00233004 0)
(505.156 -0.000774794 0)
(505.204 0.00156507 0)
(505.25 0.000455025 0)
(505.286 -0.000986368 0)
(505.304 -0.00048882 0)
(505.308 9.56586e-05 0)
(505.308 0.000345732 0)
(505.308 0.000368836 0)
(505.307 -4.25681e-05 0)
(505.305 -0.000387377 0)
(505.301 -0.000294665 0)
(505.293 -6.91837e-05 0)
(505.28 0.000111533 0)
(505.263 0.000217485 0)
(505.243 0.00014025 0)
(505.221 -3.99224e-05 0)
(505.199 -6.87064e-05 0)
(505.18 -7.26946e-05 0)
(505.165 -6.36616e-05 0)
(505.152 3.31607e-06 0)
(505.142 5.97808e-05 0)
(505.135 5.22201e-05 0)
(505.128 3.27908e-05 0)
(505.124 7.98101e-06 0)
(505.12 -8.41157e-06 0)
(505.117 -2.15737e-05 0)
(505.116 -4.99346e-05 0)
(505.115 -2.50008e-05 0)
(505.113 -1.09972e-05 0)
(505.112 -6.08167e-06 0)
(505.11 -8.95029e-06 0)
(505.109 5.34448e-05 0)
(505.109 9.26088e-05 0)
(505.11 0.000118325 0)
(505.112 0.000132756 0)
(505.116 4.69874e-05 0)
(505.12 -2.11106e-05 0)
(505.124 -9.13824e-05 0)
(505.13 -0.000158211 0)
(505.136 -0.000153797 0)
(505.143 -2.10412e-05 0)
(505.152 8.42949e-05 0)
(505.162 0.000128035 0)
(505.173 0.000169412 0)
(505.184 0.000103668 0)
(505.193 -1.14733e-05 0)
(505.2 -4.95864e-05 0)
(505.203 -0.000108253 0)
(505.202 -8.61491e-05 0)
(505.201 1.60233e-05 0)
(505.201 5.67451e-05 0)
(505.201 0.000101004 0)
(505.201 0.000114427 0)
(505.2 6.52251e-05 0)
(505.198 1.00782e-05 0)
(505.194 -3.19698e-05 0)
(505.189 -7.67671e-05 0)
(505.182 -7.83275e-05 0)
(505.175 -5.79877e-05 0)
(505.168 -1.49787e-05 0)
(505.162 2.80832e-05 0)
(505.158 4.61311e-05 0)
(505.154 2.16934e-05 0)
(505.151 -1.57409e-05 0)
(505.149 -7.06305e-05 0)
(505.146 -0.000108864 0)
(505.143 -0.000100503 0)
(505.141 -7.29289e-05 0)
(505.139 -1.3495e-05 0)
(505.137 4.75353e-05 0)
(505.135 7.74911e-05 0)
(505.131 7.32511e-05 0)
(505.126 6.01413e-05 0)
(505.121 2.32255e-05 0)
(505.117 -1.81184e-05 0)
(505.116 -3.3971e-05 0)
(505.115 -4.26629e-05 0)
(505.116 -6.18448e-06 0)
(505.118 3.62832e-05 0)
(505.12 4.6689e-05 0)
(505.124 5.43776e-05 0)
(505.129 4.37084e-05 0)
(505.136 -5.58882e-06 0)
(505.144 -4.74967e-05 0)
(505.154 -7.21147e-05 0)
(505.163 -6.78805e-05 0)
(505.172 -4.64128e-05 0)
(505.178 -5.16014e-06 0)
(505.184 7.17437e-06 0)
(505.188 1.37672e-05 0)
(505.191 2.19321e-05 0)
(505.194 -3.67634e-06 0)
(505.197 -2.09381e-05 0)
(505.198 -1.95322e-05 0)
(505.2 -2.10901e-05 0)
(505.2 3.66842e-06 0)
(505.2 1.93009e-05 0)
(505.199 2.53488e-05 0)
(505.198 4.27384e-05 0)
(505.195 4.41218e-05 0)
(505.192 2.54899e-05 0)
(505.188 8.74115e-06 0)
(505.184 -1.80648e-05 0)
(505.179 -7.78012e-05 0)
(505.173 -7.67993e-05 0)
(505.166 -5.9902e-05 0)
(505.16 -4.4726e-05 0)
(505.155 -7.9525e-06 0)
(505.151 1.74778e-05 0)
(505.148 3.62045e-05 0)
(505.146 4.95819e-05 0)
(505.145 1.10453e-05 0)
(505.145 -6.08794e-05 0)
(505.144 -7.16709e-05 0)
(505.143 -6.50417e-05 0)
(505.141 -1.02698e-05 0)
(505.139 3.8762e-05 0)
(505.136 5.32065e-05 0)
(505.133 6.05049e-05 0)
(505.13 2.5003e-05 0)
(505.126 -3.93842e-05 0)
(505.121 -5.7985e-05 0)
(505.116 -6.85128e-05 0)
(505.114 -6.59134e-05 0)
(505.113 -2.37713e-05 0)
(505.113 2.92517e-05 0)
(505.113 5.16145e-05 0)
(505.116 6.65815e-05 0)
(505.12 5.17472e-05 0)
(505.126 -4.07754e-06 0)
(505.135 -1.82669e-05 0)
(505.145 -2.48469e-05 0)
(505.156 1.46373e-05 0)
(505.165 0.000103579 0)
(505.174 0.000128818 0)
(505.181 0.000118418 0)
(505.186 6.53463e-05 0)
(505.19 -3.10174e-05 0)
(505.193 -0.000108576 0)
(505.195 -0.000131029 0)
(505.197 -0.000138889 0)
(505.199 -8.0158e-05 0)
(505.2 1.82583e-06 0)
(505.201 1.21228e-05 0)
(505.202 2.33184e-05 0)
(505.202 2.93595e-05 0)
(505.203 -9.78306e-06 0)
(505.202 -4.53312e-05 0)
(505.2 -4.85097e-05 0)
(505.197 -3.70377e-05 0)
(505.192 3.89444e-05 0)
(505.187 0.000104386 0)
(505.18 0.000123987 0)
(505.173 0.00011784 0)
(505.166 2.50177e-05 0)
(505.161 -0.000101832 0)
(505.155 -0.000117426 0)
(505.151 -0.000111711 0)
(505.148 -9.39099e-05 0)
(505.146 -1.16783e-05 0)
(505.143 6.42831e-05 0)
(500 6.62774e-15 0)
(500 -1.36354e-13 0)
(500 -1.62833e-13 0)
(500 -8.38371e-14 0)
(500 -1.28239e-14 0)
(500 1.74749e-14 0)
(500 -1.97567e-13 0)
(500 -3.87705e-13 0)
(500 -2.44032e-13 0)
(500 -1.65443e-13 0)
(500 -1.52173e-13 0)
(500 -1.70052e-13 0)
(500 1.08392e-14 0)
(500 -1.20535e-13 0)
(500 -1.17073e-13 0)
(500 -3.25128e-14 0)
(500 5.91975e-14 0)
(500 1.62758e-13 0)
(500 1.64866e-13 0)
(500 2.48263e-13 0)
(500 -7.26786e-14 0)
(500 -9.23843e-14 0)
(500 -2.9274e-13 0)
(500 -2.56325e-13 0)
(500 -2.07877e-13 0)
(500 -1.38193e-13 0)
(500 9.98985e-15 0)
(500 8.77002e-14 0)
(500 9.2044e-14 0)
(500 2.29042e-13 0)
(500 1.29048e-13 0)
(500 9.72508e-14 0)
(500 1.12789e-13 0)
(500 -1.29368e-13 0)
(500 2.20923e-14 0)
(500 2.17407e-14 0)
(500 -2.79758e-14 0)
(500 6.63877e-15 0)
(500 -4.03036e-14 0)
(500 -1.85719e-13 0)
(500 -4.18587e-13 0)
(500 -4.95954e-13 0)
(500 -1.93877e-13 0)
(500 -1.18406e-13 0)
(500 1.72672e-14 0)
(500 4.16989e-14 0)
(500 1.65475e-13 0)
(500 1.39498e-13 0)
(500 -1.62173e-13 0)
(500 -2.18227e-13 0)
(500 -1.66811e-13 0)
(500 3.98637e-14 0)
(500 -2.19182e-14 0)
(500 -1.45035e-13 0)
(500 -2.7142e-13 0)
(500 -2.61446e-13 0)
(500 -3.23749e-13 0)
(500 -2.48044e-13 0)
(500 -8.77553e-14 0)
(500 1.9039e-14 0)
(500 -1.25299e-13 0)
(500 -1.96479e-13 0)
(500 5.18726e-15 0)
(500 -2.97795e-14 0)
(500 5.68141e-14 0)
(500 1.22286e-13 0)
(500 3.40067e-14 0)
(500 1.3922e-13 0)
(500 -4.69742e-14 0)
(500 -2.17052e-13 0)
(500 -2.13199e-13 0)
(500 -3.85503e-13 0)
(500 -4.38365e-13 0)
(500 -1.84525e-13 0)
(500 -1.78601e-14 0)
(500 -8.0676e-14 0)
(500 -8.4769e-14 0)
(500 -1.76884e-13 0)
(500 -2.45405e-13 0)
(500 3.78608e-13 0)
(500 -3.87809e-12 0)
(500 1.1139e-11 0)
(500 -8.59761e-12 0)
(500 -8.82289e-11 0)
(500 4.57784e-10 0)
(500 -1.10087e-09 0)
(500 2.51198e-10 0)
(500 7.24672e-09 0)
(500 -2.28249e-08 0)
(500 1.21172e-08 0)
(500 1.64668e-07 0)
(500 -7.14271e-07 0)
(499.999 1.38155e-06 0)
(499.999 -4.50107e-07 0)
(499.997 -6.00807e-06 0)
(499.993 1.9813e-05 0)
(499.986 -2.85257e-05 0)
(499.973 -1.10594e-05 0)
(499.947 0.000137118 0)
(499.901 -0.000276573 0)
(499.825 0.000125312 0)
(499.709 0.000537226 0)
(499.566 -0.00116 0)
(499.453 0.000537747 0)
(499.419 0.000237536 0)
(499.419 9.25285e-05 0)
(499.429 -4.39948e-05 0)
(499.463 -0.000139489 0)
(499.535 -0.000200218 0)
(499.654 4.47126e-05 0)
(499.821 0.00037049 0)
(500.031 -0.000112188 0)
(500.273 -8.59937e-05 0)
(500.535 0.00138927 0)
(500.809 0.000309353 0)
(501.089 -0.00251511 0)
(501.367 -0.00140113 0)
(501.641 0.00286752 0)
(501.911 0.00211367 0)
(502.177 -0.00291178 0)
(502.436 -0.0027251 0)
(502.686 0.00393393 0)
(502.929 0.00486344 0)
(503.166 -0.00257231 0)
(503.393 -0.00698815 0)
(503.608 -5.0505e-05 0)
(503.809 0.00694861 0)
(503.998 0.00276825 0)
(504.173 -0.00475178 0)
(504.332 -0.00315014 0)
(504.471 0.00418212 0)
(504.593 0.00419527 0)
(504.701 -0.00204416 0)
(504.792 -0.00507871 0)
(504.871 -0.00101691 0)
(504.938 0.00387396 0)
(504.997 0.00315968 0)
(505.052 -0.000835321 0)
(505.104 -0.00258663 0)
(505.155 -0.000636319 0)
(505.204 0.00175989 0)
(505.25 0.000786577 0)
(505.287 -0.00159654 0)
(505.305 -0.00117534 0)
(505.309 0.000194209 0)
(505.309 0.000689497 0)
(505.308 0.000738127 0)
(505.307 0.000259467 0)
(505.305 -0.000326239 0)
(505.301 -0.000465429 0)
(505.293 -0.000216971 0)
(505.28 5.10924e-05 0)
(505.263 0.000118697 0)
(505.243 -1.81461e-05 0)
(505.221 -0.00015275 0)
(505.199 0.000121602 0)
(505.179 0.000419109 0)
(505.165 5.32881e-05 0)
(505.152 -7.31539e-05 0)
(505.142 -8.76094e-05 0)
(505.135 -0.000219953 0)
(505.129 -0.000225735 0)
(505.124 -7.88033e-05 0)
(505.12 2.40554e-05 0)
(505.117 0.00022372 0)
(505.116 0.000318968 0)
(505.114 0.000234291 0)
(505.113 0.000120516 0)
(505.112 -0.000126427 0)
(505.111 -0.000354348 0)
(505.109 -0.000288136 0)
(505.11 -5.15727e-05 0)
(505.111 0.000170295 0)
(505.113 0.000497304 0)
(505.116 0.000531499 0)
(505.119 0.000366129 0)
(505.124 0.000116315 0)
(505.13 -0.000287576 0)
(505.136 -0.000587752 0)
(505.143 -0.000444675 0)
(505.152 -0.000119212 0)
(505.163 0.000129131 0)
(505.173 0.000398302 0)
(505.184 0.000406643 0)
(505.193 0.000123197 0)
(505.2 -3.52927e-05 0)
(505.203 -0.00029498 0)
(505.202 -0.000514105 0)
(505.202 -0.000265592 0)
(505.201 -0.000105147 0)
(505.201 0.000171256 0)
(505.201 0.000430847 0)
(505.2 0.000394497 0)
(505.198 0.000193059 0)
(505.194 3.01501e-05 0)
(505.189 -0.000194253 0)
(505.182 -0.00026297 0)
(505.175 -0.000228272 0)
(505.168 -0.000113693 0)
(505.162 7.03277e-05 0)
(505.158 0.000226692 0)
(505.154 0.000219828 0)
(505.151 0.000164885 0)
(505.148 8.47436e-06 0)
(505.146 -0.000213212 0)
(505.144 -0.000269089 0)
(505.141 -0.000251698 0)
(505.139 -0.000185778 0)
(505.137 7.23079e-06 0)
(505.135 0.000165477 0)
(505.131 0.00018729 0)
(505.126 0.000187086 0)
(505.121 0.000142662 0)
(505.117 6.0218e-06 0)
(505.116 -5.79645e-05 0)
(505.115 -0.000118953 0)
(505.116 -9.64485e-05 0)
(505.118 4.9176e-06 0)
(505.121 5.60525e-05 0)
(505.124 0.000136562 0)
(505.129 0.000189033 0)
(505.136 0.000156837 0)
(505.144 1.64137e-05 0)
(505.154 -5.04767e-05 0)
(505.163 -0.000152338 0)
(505.172 -0.000169032 0)
(505.178 -0.000131165 0)
(505.184 -7.30406e-05 0)
(505.188 -2.59012e-06 0)
(505.191 0.000125167 0)
(505.194 0.00012391 0)
(505.197 7.60146e-05 0)
(505.198 1.19488e-06 0)
(505.199 -0.000110848 0)
(505.2 -0.000137829 0)
(505.2 -0.00012014 0)
(505.2 -8.26884e-05 0)
(505.198 7.67214e-05 0)
(505.195 0.000249751 0)
(505.192 0.000271577 0)
(505.188 0.000299784 0)
(505.183 0.000173426 0)
(505.179 -0.000204289 0)
(505.173 -0.000328977 0)
(505.166 -0.000336825 0)
(505.16 -0.000318963 0)
(505.155 -8.94773e-05 0)
(505.151 0.000106759 0)
(505.148 0.000183209 0)
(505.146 0.000326516 0)
(505.145 0.000240813 0)
(505.145 -0.000165838 0)
(505.144 -0.000286299 0)
(505.143 -0.000340319 0)
(505.141 -0.000203613 0)
(505.139 6.82425e-05 0)
(505.136 0.000141041 0)
(505.133 0.000270488 0)
(505.13 0.000254816 0)
(505.126 -3.82379e-05 0)
(505.121 -0.00018167 0)
(505.116 -0.00021969 0)
(505.114 -0.000287229 0)
(505.113 -0.000225349 0)
(505.113 -2.42838e-05 0)
(505.113 8.76654e-05 0)
(505.116 0.000177382 0)
(505.12 0.000204637 0)
(505.126 8.7063e-06 0)
(505.135 -7.06332e-05 0)
(505.145 -0.000215276 0)
(505.156 -0.000290161 0)
(505.166 0.000134764 0)
(505.174 0.000443215 0)
(505.181 0.000500024 0)
(505.186 0.000526463 0)
(505.189 0.000239162 0)
(505.192 -0.000135741 0)
(505.195 -0.000249554 0)
(505.197 -0.000433082 0)
(505.2 -0.000477196 0)
(505.2 -0.000102618 0)
(505.201 2.49798e-05 0)
(505.202 8.56122e-05 0)
(505.202 0.000167747 0)
(505.202 4.33815e-06 0)
(505.202 -0.000191361 0)
(505.2 -0.000243061 0)
(505.197 -0.000297776 0)
(505.193 -0.000120101 0)
(505.187 0.000179245 0)
(505.18 0.000307823 0)
(505.173 0.00056524 0)
(505.166 0.000563837 0)
(505.16 -7.68396e-05 0)
(505.155 -0.000334913 0)
(505.151 -0.000407403 0)
(505.149 -0.000514719 0)
(505.146 -0.000315949 0)
(505.144 8.77204e-05 0)
(500 9.73178e-15 0)
(500 -2.40277e-14 0)
(500 -7.2703e-14 0)
(500 2.76595e-14 0)
(500 7.73854e-14 0)
(500 1.47942e-14 0)
(500 -1.66875e-13 0)
(500 -2.24886e-13 0)
(500 -2.14894e-13 0)
(500 -2.39103e-13 0)
(500 -3.10172e-13 0)
(500 -1.15098e-13 0)
(500 -7.22029e-14 0)
(500 -2.18107e-13 0)
(500 -1.69443e-13 0)
(500 -2.67509e-14 0)
(500 1.75822e-13 0)
(500 2.11823e-13 0)
(500 2.15831e-13 0)
(500 1.67314e-13 0)
(500 6.45655e-15 0)
(500 -2.7493e-13 0)
(500 -3.36929e-13 0)
(500 -2.64123e-13 0)
(500 -1.0293e-13 0)
(500 7.38029e-14 0)
(500 1.55418e-13 0)
(500 9.99113e-15 0)
(500 1.59005e-13 0)
(500 2.86372e-13 0)
(500 1.36329e-13 0)
(500 1.87397e-13 0)
(500 1.96115e-13 0)
(500 1.13391e-13 0)
(500 1.33788e-13 0)
(500 6.23536e-14 0)
(500 -1.36014e-14 0)
(500 -1.64183e-13 0)
(500 -1.47618e-13 0)
(500 -2.73482e-13 0)
(500 -4.71042e-13 0)
(500 -6.44977e-13 0)
(500 -3.2162e-13 0)
(500 -3.71916e-13 0)
(500 -3.53748e-13 0)
(500 -1.34692e-13 0)
(500 1.426e-13 0)
(500 -1.27882e-14 0)
(500 -1.8534e-13 0)
(500 -3.53829e-13 0)
(500 -3.11968e-13 0)
(500 -1.12009e-13 0)
(500 -7.72633e-14 0)
(500 -3.09372e-14 0)
(500 -1.26694e-13 0)
(500 -1.77645e-13 0)
(500 -3.33308e-13 0)
(500 -2.89591e-13 0)
(500 -1.72929e-13 0)
(500 -1.27232e-13 0)
(500 -2.76486e-13 0)
(500 -3.34438e-13 0)
(500 -1.84701e-13 0)
(500 -1.3804e-13 0)
(500 4.85145e-14 0)
(500 9.0903e-14 0)
(500 2.02502e-13 0)
(500 9.43832e-14 0)
(500 -2.98554e-14 0)
(500 1.25732e-14 0)
(500 -1.08682e-13 0)
(500 -6.07883e-13 0)
(500 -5.67565e-13 0)
(500 -3.05452e-13 0)
(500 3.85521e-14 0)
(500 4.37539e-14 0)
(500 -1.74749e-13 0)
(500 -7.83663e-14 0)
(500 -8.38954e-14 0)
(500 6.30397e-13 0)
(500 -5.16952e-12 0)
(500 1.68511e-11 0)
(500 -1.78415e-11 0)
(500 -1.06054e-10 0)
(500 6.38302e-10 0)
(500 -1.61088e-09 0)
(500 8.78296e-10 0)
(500 8.53892e-09 0)
(500 -3.01035e-08 0)
(500 2.05615e-08 0)
(500 2.00689e-07 0)
(500 -9.00054e-07 0)
(499.999 1.83915e-06 0)
(499.999 -7.28815e-07 0)
(499.997 -7.47351e-06 0)
(499.993 2.51523e-05 0)
(499.986 -3.36273e-05 0)
(499.973 -2.06062e-05 0)
(499.947 0.000183524 0)
(499.901 -0.000332658 0)
(499.825 0.000103688 0)
(499.709 0.00075724 0)
(499.567 -0.00139434 0)
(499.453 0.000508391 0)
(499.419 0.000341995 0)
(499.419 0.000176292 0)
(499.429 -3.7016e-05 0)
(499.463 -0.000199034 0)
(499.535 -0.00031723 0)
(499.654 8.73447e-05 0)
(499.821 0.000311905 0)
(500.031 -0.000599625 0)
(500.272 0.000373856 0)
(500.534 0.00216058 0)
(500.809 -0.000495249 0)
(501.089 -0.00351827 0)
(501.367 -0.000208984 0)
(501.64 0.00405144 0)
(501.912 0.000392561 0)
(502.178 -0.0050774 0)
(502.436 -0.00120471 0)
(502.685 0.00680166 0)
(502.929 0.00397298 0)
(503.167 -0.00550579 0)
(503.393 -0.00727634 0)
(503.607 0.00279527 0)
(503.808 0.00744067 0)
(503.999 0.000263662 0)
(504.174 -0.00637505 0)
(504.332 -0.00122706 0)
(504.47 0.00619859 0)
(504.593 0.00310814 0)
(504.701 -0.00394879 0)
(504.792 -0.00545584 0)
(504.871 0.000353776 0)
(504.937 0.00492714 0)
(504.998 0.0028894 0)
(505.053 -0.00155608 0)
(505.104 -0.00298042 0)
(505.155 2.93695e-05 0)
(505.203 0.00202654 0)
(505.25 0.000358862 0)
(505.287 -0.00187945 0)
(505.306 -0.00140589 0)
(505.31 0.0003334 0)
(505.309 0.00106314 0)
(505.309 0.00103592 0)
(505.308 0.000334378 0)
(505.305 -0.000619749 0)
(505.301 -0.000794192 0)
(505.292 -0.000444002 0)
(505.28 0.000142028 0)
(505.264 0.00025729 0)
(505.244 -6.90959e-05 0)
(505.222 -0.000424861 0)
(505.2 -0.000171361 0)
(505.18 0.000551225 0)
(505.164 0.000611075 0)
(505.151 3.73298e-05 0)
(505.142 -0.000128193 0)
(505.135 -0.000383972 0)
(505.129 -0.000577492 0)
(505.124 -0.000524906 0)
(505.121 -0.000411261 0)
(505.118 -1.55099e-05 0)
(505.116 0.000491076 0)
(505.114 0.00056177 0)
(505.112 0.000488784 0)
(505.111 6.13706e-05 0)
(505.11 -0.000450135 0)
(505.11 -0.000612235 0)
(505.11 -0.000548513 0)
(505.111 -0.000163797 0)
(505.113 0.000521171 0)
(505.116 0.000791007 0)
(505.119 0.000755311 0)
(505.123 0.000462408 0)
(505.129 -0.000131321 0)
(505.135 -0.000739169 0)
(505.143 -0.00081109 0)
(505.153 -0.000537909 0)
(505.163 -0.000110089 0)
(505.174 0.000397616 0)
(505.184 0.000582208 0)
(505.193 0.000436307 0)
(505.199 0.000286358 0)
(505.202 -0.000109463 0)
(505.202 -0.00060129 0)
(505.202 -0.000542351 0)
(505.202 -0.00038935 0)
(505.202 -2.78183e-05 0)
(505.201 0.000405042 0)
(505.2 0.000476825 0)
(505.198 0.000372542 0)
(505.194 0.000203212 0)
(505.188 -0.000144325 0)
(505.182 -0.000302654 0)
(505.175 -0.000298478 0)
(505.168 -0.000233181 0)
(505.162 -3.42871e-05 0)
(505.158 0.000226658 0)
(505.154 0.000265099 0)
(505.151 0.000224892 0)
(505.148 3.80494e-05 0)
(505.146 -0.000236132 0)
(505.144 -0.000297808 0)
(505.142 -0.000316134 0)
(505.139 -0.000260915 0)
(505.138 -3.25087e-05 0)
(505.135 0.000132431 0)
(505.131 0.000159259 0)
(505.126 0.000165217 0)
(505.121 0.000156476 0)
(505.117 6.5117e-05 0)
(505.116 9.00556e-06 0)
(505.115 -3.46828e-05 0)
(505.116 -2.54363e-05 0)
(505.118 1.59146e-05 0)
(505.121 4.65017e-05 0)
(505.124 9.30601e-05 0)
(505.13 0.000129436 0)
(505.136 9.22439e-05 0)
(505.144 -4.10178e-05 0)
(505.154 -0.000112922 0)
(505.163 -0.000210747 0)
(505.172 -0.00023072 0)
(505.178 -0.000185179 0)
(505.184 -0.000123901 0)
(505.188 -4.20541e-05 0)
(505.191 9.33111e-05 0)
(505.194 0.000153053 0)
(505.197 0.000123333 0)
(505.198 5.56886e-05 0)
(505.199 -5.91673e-05 0)
(505.2 -0.000130431 0)
(505.2 -0.000104976 0)
(505.2 -4.29757e-05 0)
(505.198 9.66332e-05 0)
(505.195 0.000327351 0)
(505.192 0.000352977 0)
(505.188 0.000318663 0)
(505.183 0.000159465 0)
(505.178 -0.00022242 0)
(505.173 -0.000427738 0)
(505.166 -0.000418086 0)
(505.16 -0.000348389 0)
(505.155 -0.00011911 0)
(505.151 0.000199878 0)
(505.148 0.00026764 0)
(505.146 0.000315137 0)
(505.144 0.000228729 0)
(505.144 -0.000139283 0)
(505.144 -0.000362153 0)
(505.143 -0.000374534 0)
(505.141 -0.000223509 0)
(505.139 0.000136573 0)
(505.137 0.000225698 0)
(505.133 0.000320863 0)
(505.13 0.000295275 0)
(505.125 5.94945e-06 0)
(505.121 -0.000276863 0)
(505.116 -0.00031829 0)
(505.114 -0.000329056 0)
(505.113 -0.000217875 0)
(505.113 1.83752e-05 0)
(505.114 0.000121408 0)
(505.116 0.000192075 0)
(505.12 0.000192351 0)
(505.126 -1.24846e-05 0)
(505.135 -0.00010794 0)
(505.145 -0.000231143 0)
(505.156 -0.000313081 0)
(505.167 -3.65862e-05 0)
(505.175 0.000541848 0)
(505.181 0.00064431 0)
(505.186 0.000651243 0)
(505.189 0.000362222 0)
(505.192 -0.000124757 0)
(505.194 -0.00028197 0)
(505.197 -0.000497124 0)
(505.2 -0.000560755 0)
(505.201 -0.000232771 0)
(505.201 3.66671e-05 0)
(505.202 9.3129e-05 0)
(505.202 0.00017878 0)
(505.202 3.95058e-05 0)
(505.202 -0.000234117 0)
(505.2 -0.000317297 0)
(505.197 -0.000349745 0)
(505.193 -0.000189014 0)
(505.187 0.000214244 0)
(505.18 0.000371419 0)
(505.173 0.000634089 0)
(505.166 0.000742131 0)
(505.159 0.000228226 0)
(505.154 -0.000419207 0)
(505.151 -0.000534384 0)
(505.148 -0.000633194 0)
(505.146 -0.000465095 0)
(505.144 4.66206e-05 0)
(500 4.444e-14 0)
(500 9.98933e-14 0)
(500 -2.70089e-14 0)
(500 3.28642e-14 0)
(500 2.2351e-14 0)
(500 -1.50698e-13 0)
(500 -2.19677e-13 0)
(500 -9.46463e-14 0)
(500 -1.96585e-13 0)
(500 -2.10951e-13 0)
(500 -3.2981e-13 0)
(500 -2.52018e-13 0)
(500 -2.06129e-13 0)
(500 -2.27302e-13 0)
(500 -1.55029e-13 0)
(500 4.46411e-14 0)
(500 1.93007e-13 0)
(500 1.60639e-13 0)
(500 3.54437e-14 0)
(500 -7.06958e-14 0)
(500 1.25747e-14 0)
(500 -2.44232e-13 0)
(500 -2.32902e-13 0)
(500 -1.69974e-13 0)
(500 -4.39489e-14 0)
(500 5.83762e-14 0)
(500 8.45271e-14 0)
(500 5.42213e-14 0)
(500 6.88485e-14 0)
(500 7.60685e-14 0)
(500 2.02955e-13 0)
(500 9.28387e-14 0)
(500 3.35157e-14 0)
(500 1.91472e-13 0)
(500 1.98453e-13 0)
(500 1.46561e-13 0)
(500 -5.57395e-14 0)
(500 -3.00574e-13 0)
(500 -3.75353e-13 0)
(500 -3.46676e-13 0)
(500 -4.84373e-13 0)
(500 -6.24531e-13 0)
(500 -5.0633e-13 0)
(500 -4.43219e-13 0)
(500 -4.20238e-13 0)
(500 -3.12037e-13 0)
(500 -1.28249e-13 0)
(500 -1.67743e-13 0)
(500 -2.49521e-13 0)
(500 -1.83737e-13 0)
(500 -2.01882e-13 0)
(500 -1.87159e-13 0)
(500 2.0083e-14 0)
(500 9.06558e-14 0)
(500 -4.26355e-14 0)
(500 -1.92007e-13 0)
(500 -1.09285e-13 0)
(500 -2.30053e-13 0)
(500 -2.5113e-13 0)
(500 -4.18463e-13 0)
(500 -2.47779e-13 0)
(500 -3.28546e-13 0)
(500 -4.08127e-13 0)
(500 -3.31757e-13 0)
(500 2.18175e-13 0)
(500 1.02093e-13 0)
(500 1.89331e-13 0)
(500 6.62678e-14 0)
(500 1.32205e-14 0)
(500 -4.35595e-14 0)
(500 -2.8528e-13 0)
(500 -4.7553e-13 0)
(500 -5.29614e-13 0)
(500 -5.14953e-13 0)
(500 -1.03899e-14 0)
(500 3.71174e-13 0)
(500 -1.593e-14 0)
(500 2.29267e-14 0)
(500 2.56754e-15 0)
(500 7.71629e-13 0)
(500 -6.00641e-12 0)
(500 2.08044e-11 0)
(500 -2.67278e-11 0)
(500 -1.07335e-10 0)
(500 7.23e-10 0)
(500 -1.95438e-09 0)
(500 1.62552e-09 0)
(500 7.98924e-09 0)
(500 -3.18565e-08 0)
(500 2.3991e-08 0)
(500 2.08027e-07 0)
(500 -9.47688e-07 0)
(499.999 1.91717e-06 0)
(499.999 -5.96754e-07 0)
(499.997 -8.15399e-06 0)
(499.993 2.53915e-05 0)
(499.986 -2.90734e-05 0)
(499.973 -3.54551e-05 0)
(499.947 0.000201502 0)
(499.901 -0.000315294 0)
(499.825 1.67868e-06 0)
(499.71 0.000902177 0)
(499.566 -0.00135131 0)
(499.453 0.000256151 0)
(499.419 0.000382461 0)
(499.419 0.000269477 0)
(499.429 6.14117e-05 0)
(499.463 -0.000201947 0)
(499.535 -0.000365362 0)
(499.654 0.000127536 0)
(499.821 -2.63207e-05 0)
(500.031 -0.0010002 0)
(500.272 0.00109442 0)
(500.534 0.00256799 0)
(500.809 -0.0014912 0)
(501.089 -0.00371377 0)
(501.366 0.0018212 0)
(501.64 0.00437993 0)
(501.913 -0.00219463 0)
(502.178 -0.00630045 0)
(502.435 0.00149894 0)
(502.684 0.00828455 0)
(502.93 0.00194664 0)
(503.167 -0.00783161 0)
(503.393 -0.00548897 0)
(503.606 0.00581599 0)
(503.808 0.00636682 0)
(504 -0.00294093 0)
(504.174 -0.00673454 0)
(504.331 0.00186575 0)
(504.469 0.00685795 0)
(504.594 0.00131677 0)
(504.701 -0.00548392 0)
(504.792 -0.00464597 0)
(504.87 0.00232869 0)
(504.937 0.00478817 0)
(504.999 0.0015374 0)
(505.054 -0.0026261 0)
(505.105 -0.00255632 0)
(505.154 0.00130515 0)
(505.202 0.00184194 0)
(505.25 -0.000426622 0)
(505.287 -0.00190513 0)
(505.306 -0.00116188 0)
(505.311 0.000633877 0)
(505.31 0.00142412 0)
(505.309 0.00122246 0)
(505.308 0.000192279 0)
(505.305 -0.000778704 0)
(505.301 -0.000869791 0)
(505.292 -0.000352027 0)
(505.28 0.000343796 0)
(505.264 0.000590408 0)
(505.244 0.000207619 0)
(505.223 -0.000253987 0)
(505.201 -8.31976e-05 0)
(505.18 0.000561972 0)
(505.163 0.000930104 0)
(505.15 0.000463121 0)
(505.141 -0.000282064 0)
(505.135 -0.000615429 0)
(505.129 -0.000772237 0)
(505.125 -0.000692973 0)
(505.122 -0.000364834 0)
(505.119 0.000229298 0)
(505.116 0.000654612 0)
(505.113 0.000675823 0)
(505.112 0.000452488 0)
(505.111 -9.04448e-05 0)
(505.11 -0.000394154 0)
(505.11 -0.000446967 0)
(505.111 -0.000273691 0)
(505.112 0.000308035 0)
(505.114 0.00067562 0)
(505.116 0.000740637 0)
(505.119 0.000619519 0)
(505.123 0.000157607 0)
(505.128 -0.000434804 0)
(505.135 -0.000695635 0)
(505.144 -0.000665979 0)
(505.154 -0.000411821 0)
(505.164 -5.51826e-05 0)
(505.174 0.000280757 0)
(505.184 0.000626238 0)
(505.193 0.000410231 0)
(505.199 9.29623e-05 0)
(505.201 -0.0003557 0)
(505.202 -0.000519809 0)
(505.203 -0.000491489 0)
(505.202 -0.000252943 0)
(505.202 0.000135775 0)
(505.201 0.000354026 0)
(505.2 0.000356577 0)
(505.197 0.000300819 0)
(505.194 0.000118768 0)
(505.188 -0.000165973 0)
(505.182 -0.00019806 0)
(505.175 -0.000161438 0)
(505.168 -5.71983e-05 0)
(505.163 6.99802e-05 0)
(505.158 0.000120685 0)
(505.154 0.00010825 0)
(505.151 4.45605e-05 0)
(505.148 -0.000110173 0)
(505.146 -0.000225108 0)
(505.144 -0.000229116 0)
(505.142 -0.000201176 0)
(505.14 -0.000111706 0)
(505.138 8.87099e-06 0)
(505.135 4.43496e-05 0)
(505.131 4.75183e-05 0)
(505.126 3.80853e-05 0)
(505.121 0.000108353 0)
(505.117 0.000124905 0)
(505.116 0.000123202 0)
(505.115 0.00013006 0)
(505.116 9.14743e-05 0)
(505.118 1.12009e-05 0)
(505.121 -1.81001e-06 0)
(505.124 -3.87886e-05 0)
(505.13 -6.8953e-05 0)
(505.136 -3.11035e-05 0)
(505.144 -6.60807e-05 0)
(505.154 -8.99847e-05 0)
(505.163 -0.000118624 0)
(505.172 -0.000157244 0)
(505.178 -0.000154888 0)
(505.184 -0.000156933 0)
(505.188 -0.000142554 0)
(505.192 -1.08256e-05 0)
(505.194 0.00017226 0)
(505.197 0.000175146 0)
(505.198 0.000157376 0)
(505.199 7.98008e-05 0)
(505.2 -5.21343e-05 0)
(505.2 -5.09495e-05 0)
(505.2 -3.37398e-05 0)
(505.198 2.62564e-05 0)
(505.196 0.00021415 0)
(505.192 0.000256529 0)
(505.188 0.00023095 0)
(505.183 0.000124973 0)
(505.178 -0.000136834 0)
(505.173 -0.000363868 0)
(505.166 -0.000356221 0)
(505.161 -0.000306907 0)
(505.155 -0.000153284 0)
(505.151 0.000134242 0)
(505.148 0.000212868 0)
(505.146 0.000217458 0)
(505.144 0.00018842 0)
(505.144 -2.42631e-05 0)
(505.144 -0.000287945 0)
(505.143 -0.000301505 0)
(505.141 -0.000218524 0)
(505.139 0.000146187 0)
(505.137 0.000288473 0)
(505.134 0.000327568 0)
(505.13 0.00031737 0)
(505.125 0.000112334 0)
(505.121 -0.000307788 0)
(505.116 -0.000382495 0)
(505.114 -0.000361959 0)
(505.113 -0.000269344 0)
(505.113 -5.04403e-06 0)
(505.114 0.000136484 0)
(505.116 0.00017338 0)
(505.12 0.000179858 0)
(505.126 1.43338e-05 0)
(505.135 -8.38183e-05 0)
(505.145 -0.00014522 0)
(505.156 -0.000240054 0)
(505.167 -0.00018217 0)
(505.175 0.000362703 0)
(505.182 0.000657897 0)
(505.186 0.000673717 0)
(505.189 0.000486959 0)
(505.192 1.79913e-05 0)
(505.194 -0.000148625 0)
(505.197 -0.000408742 0)
(505.199 -0.00060391 0)
(505.201 -0.000456966 0)
(505.202 -9.16944e-05 0)
(505.202 -2.52563e-05 0)
(505.202 9.02579e-05 0)
(505.202 7.21045e-05 0)
(505.202 -0.000175965 0)
(505.2 -0.000275855 0)
(505.197 -0.000291365 0)
(505.193 -0.000186661 0)
(505.187 0.000236168 0)
(505.181 0.000378012 0)
(505.173 0.000500596 0)
(505.166 0.000599056 0)
(505.159 0.000415879 0)
(505.154 -0.000242335 0)
(505.15 -0.00047906 0)
(505.148 -0.000572135 0)
(505.147 -0.000482837 0)
(505.145 1.93945e-05 0)
(500 -3.92452e-15 0)
(500 -1.01922e-13 0)
(500 -1.09025e-13 0)
(500 -1.15396e-13 0)
(500 -3.16796e-14 0)
(500 -1.29995e-13 0)
(500 -1.74365e-13 0)
(500 -1.01689e-13 0)
(500 -1.19993e-13 0)
(500 -1.50271e-13 0)
(500 -2.5465e-13 0)
(500 -2.22523e-13 0)
(500 -2.23622e-13 0)
(500 -1.16992e-13 0)
(500 -1.52097e-13 0)
(500 -1.48848e-13 0)
(500 -1.14025e-14 0)
(500 -1.23313e-13 0)
(500 -2.61575e-13 0)
(500 -3.50169e-13 0)
(500 -1.87015e-13 0)
(500 -3.68766e-13 0)
(500 -2.62226e-13 0)
(500 -1.88756e-13 0)
(500 9.2176e-14 0)
(500 5.39717e-14 0)
(500 1.71519e-13 0)
(500 1.82816e-13 0)
(500 8.27525e-14 0)
(500 -5.60792e-15 0)
(500 2.0513e-15 0)
(500 3.9262e-14 0)
(500 1.43125e-13 0)
(500 1.02294e-14 0)
(500 4.22661e-14 0)
(500 2.70931e-15 0)
(500 -1.83806e-13 0)
(500 -3.42079e-13 0)
(500 -2.95783e-13 0)
(500 -1.35396e-13 0)
(500 -5.76194e-14 0)
(500 -2.95173e-13 0)
(500 -3.12011e-13 0)
(500 -2.78615e-13 0)
(500 -3.62996e-13 0)
(500 -4.09724e-13 0)
(500 -4.26667e-13 0)
(500 -3.83171e-13 0)
(500 -3.68539e-13 0)
(500 -2.39237e-13 0)
(500 -2.52013e-13 0)
(500 -1.81128e-13 0)
(500 -5.57595e-14 0)
(500 1.073e-13 0)
(500 5.52758e-14 0)
(500 -8.17623e-14 0)
(500 9.06562e-14 0)
(500 -2.74764e-13 0)
(500 -3.07577e-13 0)
(500 -4.83879e-13 0)
(500 -3.29536e-13 0)
(500 -3.41063e-13 0)
(500 -5.70379e-13 0)
(500 -5.50971e-13 0)
(500 -1.26098e-13 0)
(500 -1.88335e-13 0)
(500 9.26936e-15 0)
(500 -8.9569e-14 0)
(500 -1.27648e-13 0)
(500 -2.77216e-13 0)
(500 -4.77257e-13 0)