/*--------------------------------*- C++ -*----------------------------------*\
| =========                 |                                                 |
| \\      /  F ield         | OpenFOAM: The Open Source CFD Toolbox           |
|  \\    /   O peration     | Version:  2306                                  |
|   \\  /    A nd           | Website:  www.openfoam.com                      |
|    \\/     M anipulation  |                                                 |
\*---------------------------------------------------------------------------*/
FoamFile
{
    version     2.0;
    format      ascii;
    arch        "LSB;label=32;scalar=64";
    class       volScalarField;
    location    "0.17";
    object      p;
}
// * * * * * * * * * * * * * * * * * * * * * * * * * * * * * * * * * * * * * //

dimensions      [1 -1 -2 0 0 0 0];

internalField   nonuniform List<scalar> 
6000
(
4.72146e+07
617243
88247.6
88431.2
92768.2
104679
118748
137365
160156
191276
222568
247824
255575
247756
233580
223258
198917
135565
100130
98564.6
102919
110320
118681
126978
134587
140696
145325
149095
152659
156670
162857
173532
190113
209934
227915
236596
229449
207645
153721
131399
132364
136114
140898
143877
145748
148687
154141
161518
168797
173426
175183
175505
175157
175739
178930
187287
202492
219797
226875
218273
183552
145048
137263
136510
140279
146447
153153
159308
163854
165136
165637
166132
166851
168611
172628
178139
184231
188497
192949
197980
197749
193594
176686
149450
142034
143274
145618
149119
151800
153554
155015
156399
158187
160879
164911
170356
175924
180157
182783
183945
184205
185522
188330
189885
187789
181919
164660
151235
150128
150553
153183
156882
159716
161544
162548
163308
164274
165673
167218
168646
170249
172367
175432
179328
183524
188619
191617
190630
185995
176702
160595
154608
155555
158012
160397
162058
162370
162156
162803
164950
168375
171640
173719
174293
173816
173291
173341
175497
179963
184009
186773
183411
172010
157210
152292
152363
155476
160780
165779
168292
168742
168059
167051
166512
166768
168120
170271
172458
174132
175314
175850
176462
177443
178164
177327
175549
167655
156908
153461
152742
152656
153652
155030
155946
156653
157907
159394
161045
162425
164424
167550
171010
173822
176055
178366
180288
181096
180589
178306
174175
164480
153396
150586
151020
152183
154683
157593
159180
159854
160683
161393
162077
162472
162790
163206
163795
164304
164646
164863
165437
166146
166581
166085
164803
161726
155289
150310
149622
151067
152664
154949
157076
158145
158529
158740
159003
159718
161427
164567
168981
172919
174582
175012
175406
176302
177761
179368
180658
180104
175333
165558
159588
158560
158350
159391
160973
162287
162475
161990
161082
160384
160151
160659
162212
165015
168897
171624
172687
173055
173470
174073
174627
175297
175695
175427
174019
168127
159606
156398
155827
156031
157731
160708
162743
162809
162144
161488
161074
161245
162532
165368
169236
171844
171903
171588
171475
171830
173007
173222
170744
4.74556e+07
360115
88723.1
88413.4
92808.9
104667
118635
137280
160507
191692
222137
244921
252296
245639
232886
223542
199509
136272
100472
98894
103377
111001
119441
127564
134797
140600
145119
148934
152583
157002
164093
175989
192979
210831
225919
232388
225598
204473
151415
129520
130813
134624
139513
142678
144698
147651
152897
159914
166875
171555
173757
174631
174919
176095
179951
188781
203340
219141
224653
216106
182253
144609
137337
137138
141234
147572
153650
159264
163213
164706
165408
166024
166903
168764
172637
177730
183356
187421
191929
197261
197395
193978
177784
150684
142939
143545
145416
148535
150957
152519
154161
156452
159211
162582
166825
171474
175729
179094
181255
182557
183442
185543
189007
190656
188835
182663
164794
151296
150010
150337
152923
156621
159498
161282
162311
163204
164423
165997
167688
169111
170477
172358
174960
178591
182715
187796
190931
190106
185878
176659
160680
154856
155799
158044
160297
161856
162146
161980
162676
164801
168077
171252
173386
174045
173731
173506
173870
175913
179906
183249
185402
182423
171629
156915
152187
152388
155100
159696
164325
166618
167141
166583
165794
165457
165944
167417
169708
171955
173618
174795
175555
176467
177689
178408
177674
175778
167742
157016
153854
153209
153268
154427
155886
156785
157364
158367
159703
161167
162552
164575
167572
170679
173174
175155
177314
179207
180245
180051
178108
174612
165813
154865
151870
152267
153337
155792
158579
159909
160420
160966
161380
162017
162338
162647
163202
164023
164790
165344
165869
166822
168036
168874
168632
167287
163867
156864
151360
150456
151649
153072
155247
157360
158426
158882
159140
159385
160000
161506
164390
168545
172504
174238
174643
174932
175730
176941
178246
178983
177971
173246
163846
157772
156749
156621
157636
159372
160914
161353
161023
160328
159766
159725
160403
161972
164625
168228
170742
171649
171809
171955
172275
172709
173484
173959
173876
172619
166989
158963
156080
155726
156290
158403
161495
163365
163234
162429
161675
161247
161307
162316
164827
168383
170472
170439
169969
169605
169748
170832
171209
168895
4.75078e+07
320447
87872.3
87938.3
91954.2
104085
118315
137389
161490
193194
221828
239919
246992
242908
232730
224013
200377
137276
100953
99707.3
104491
112304
120550
128056
134621
140210
144934
149037
153090
158444
167309
180069
196226
211443
222821
226582
221186
199862
147615
127029
128712
132890
138085
141493
143694
146507
151132
157400
163928
168954
171984
173767
175179
177443
182093
190903
204563
218220
221167
212942
180302
144167
137842
138445
142732
148622
153748
158502
161883
163825
165002
165951
167045
168879
172372
176979
182042
186030
191004
196938
197329
194622
179212
152213
143951
143731
144938
147432
149399
150940
153354
156950
161207
165543
169182
172068
174651
176848
178958
180789
182420
185574
190236
192002
190751
184048
164991
151244
149665
150003
152638
156372
159322
161100
162162
163118
164488
166249
168086
169541
170635
172071
174007
177220
181243
186550
190307
189801
185991
176878
160932
155143
155992
157900
160110
161662
161977
161886
162596
164621
167595
170615
172978
174037
174179
174360
174915
176384
179497
181927
183058
180825
171221
156978
152569
152963
154783
158251
162206
164297
165006
165061
164689
164573
165139
166604
168936
171133
172681
173885
175014
176453
178097
178818
178055
175808
167436
156829
154073
153646
154016
155543
157171
157978
158312
158922
160095
161465
162965
165066
167990
170798
172686
173943
175490
177236
178798
179171
177697
174927
167444
156675
153195
153533
154504
156905
159504
160687
161023
161306
161479
161869
162190
162455
163048
164110
165251
166008
166757
168077
169902
171335
171616
170620
167199
159418
152799
151581
152514
153699
155761
157789
158727
159078
159276
159587
160339
161799
164334
167902
171686
173739
174356
174747
175534
176445
177053
176926
175313
170871
162156
155846
154668
154554
155392
157162
158896
159642
159522
159178
159023
159341
160410
162045
164468
167664
169893
170594
170527
170192
170104
170288
171063
171598
171632
170498
165356
158118
155676
155543
156485
159005
162231
163988
163764
162911
162106
161708
161767
162452
164289
167410
169339
169327
168349
167138
166749
167743
168668
166841
4.72753e+07
556152
87993.4
88243.7
91413.2
103239
117619
137452
163080
195606
222054
234749
240529
238953
232162
223737
200443
137570
101449
100900
106161
114172
122042
128734
134526
139750
144618
149249
154265
161427
171943
184589
198272
211609
220083
222022
216590
194181
142552
123675
125931
130764
136368
140092
142415
144960
148836
154160
160087
165484
169775
172985
175990
179723
184910
192950
205387
216746
217092
209123
177744
143639
138621
139942
144241
149478
153836
157409
160475
162862
164544
165889
167185
168914
171788
175638
180117
184499
190445
197128
197975
195834
180961
153706
144957
144058
144593
146343
147875
149619
152813
157714
163506
168628
171275
172730
173701
174589
176262
178403
180899
185170
191231
193533
192810
185641
165262
151181
149120
149401
152093
155973
158996
161064
162354
163359
164738
166571
168589
170167
171089
171978
173386
175858
179507
184898
189350
189239
185948
176904
161005
155299
156117
157760
159940
161533
161913
161926
162615
164449
167015
169864
172539
174201
174865
175311
175810
176615
178814
180750
180792
178983
170557
157296
152888
153343
154289
156662
159642
161398
162162
162693
163048
163423
164190
165711
167980
170054
171480
172692
174137
176071
178265
179131
178313
175762
167229
156713
154266
154227
154946
156936
158789
159441
159546
159810
160692
161911
163393
165489
168394
170855
171958
172566
173547
175025
177223
178550
177768
175779
169293
158559
154520
154665
155483
157694
160112
161221
161362
161500
161567
161770
162271
162560
163201
164488
165872
166780
167634
169091
171376
173597
174592
174036
170950
162897
155139
153493
154037
154932
156836
158637
159313
159444
159516
159793
160544
161910
164075
167212
170885
172908
173456
173709
174173
174622
174560
173847
172094
168211
160208
153580
152202
152226
153153
155162
157080
157912
157980
157950
158152
158736
160004
161710
164005
166885
168808
169230
168899
168167
167762
167752
168530
169109
169232
168186
163359
156906
154969
155188
156687
159765
163126
164697
164311
163373
162443
161879
161764
162284
163672
166122
167664
167388
166056
164736
164288
165495
167489
166177
4.75768e+07
263271
89385
89031.3
91432.5
102640
116940
137736
165076
198420
222801
231158
233853
233766
230675
222840
199172
136322
101783
102345
108310
116487
123802
129446
134363
139163
144243
149725
156411
165526
176798
188614
199584
210354
218121
218713
212311
189006
138202
120922
123638
129098
135035
138931
141292
143572
146740
151093
156389
162056
167587
172719
177665
182608
187771
194564
205552
214740
213416
205290
175059
143193
139339
141173
145183
149625
152979
155895
158766
161504
163673
165361
166847
168415
170698
173968
178266
183391
190387
198095
199690
197428
182732
155188
145522
144010
144203
145538
146881
149003
152597
158748
165265
170477
172502
173173
173089
173033
173810
175605
178617
183813
191141
194706
194901
187182
165513
150995
148386
148531
151288
155402
158490
161072
162845
163891
165139
166892
168929
170472
171222
171721
172610
174440
177605
182903
187836
188147
185551
176591
160899
155425
156253
157660
159777
161429
161906
162069
162747
164353
166568
169273
172167
174387
175569
176123
176150
176544
178131
179869
179206
177747
170229
157835
153188
153565
153932
155554
157604
158870
159335
160135
161185
162002
163029
164754
167072
168972
170187
171317
172954
175241
178078
179214
178316
175546
167038
156711
154339
154690
155710
158200
160279
160806
160775
160824
161364
162432
163823
165819
168586
170647
171223
171462
172102
173303
175710
177757
177565
176043
170249
159828
155422
155458
156287
158425
160643
161554
161450
161355
161317
161564
162242
162783
163658
165151
166643
167603
168463
169968
172597
175390
176833
176621
173704
165653
157323
155488
155846
156819
158776
160391
160732
160475
160187
160104
160346
161327
163160
166166
169731
171484
171781
171631
171662
172007
172130
171622
170527
167180
159313
152081
150479
150631
151619
153641
155649
156523
156715
156828
157255
158003
159274
160813
162911
165634
167515
167778
167339
166512
166051
166031
166831
167304
167439
166388
161615
155592
154099
154622
156592
160205
163682
164842
164294
163259
162216
161789
161802
162024
162731
164416
166076
165799
164624
163731
163306
164437
166830
165858
4.72686e+07
572232
88259.8
89199
90883
102098
116727
138736
167560
200973
223730
229272
228719
228002
226967
220480
196386
133480
102057
103666
110816
119078
125609
130183
134254
138722
144107
150747
159154
169399
180538
191516
200398
209126
216812
217064
210236
185865
135222
119293
122313
128179
134303
138237
140503
142519
145190
148899
153735
159592
166240
173135
179616
185069
189795
195456
204789
212204
210232
202341
172965
143220
139996
142002
145652
149446
152064
154343
157022
159940
162503
164524
166145
167591
169537
172555
177022
183071
191025
199691
201946
198938
184534
156674
145767
143793
143916
145196
146696
149348
153356
159983
166416
171042
172783
173038
172436
171943
171977
173005
175753
181625
190095
194988
196323
187977
165469
150681
147649
147650
150443
154654
157994
161016
163402
164614
165765
167396
169352
170803
171465
171768
172232
173491
176114
181117
185894
186524
184640
175753
160424
155216
156086
157437
159604
161413
162063
162364
163022
164374
166334
169010
172136
174767
176080
176418
176118
176353
177720
179299
178538
177318
170501
158665
153664
153944
153920
155047
156365
157118
157301
157946
159198
160636
162102
164029
166322
168075
169118
170123
171733
174180
177390
178950
178171
175370
167058
156838
154420
155062
156337
159051
161248
161768
161722
161631
161910
162843
164110
165927
168407
170226
170744
170997
171462
172501
174812
177060
177202
175994
170716
160572
155769
155693
156467
158506
160641
161412
161191
160862
160796
161184
162077
163048
164366
166067
167536
168395
169128
170567
173389
176600
178340
178452
175679
167691
159160
157257
157601
158915
161206
162803
162967
162179
161088
160353
160129
160589
162008
164522
167462
168761
168817
168646
168984
169940
170941
171013
170081
167171
159621
151835
149869
149920
150926
152998
155094
156080
156343
156438
156802
157397
158471
159712
161574
164356
166643
167178
166832
166006
165492
165435
166207
166596
166704
165487
160429
154537
153361
154014
156225
159890
163008
163906
163279
162289
161400
160859
160573
160612
161209
162995
165202
165347
164593
163818
163473
164741
167427
166632
4.75328e+07
290718
88324
88672.2
90314.3
101640
116965
140028
170037
203048
223908
228396
226044
223440
221810
216458
192020
129611
102270
104815
113404
121539
127202
131027
134556
138709
144324
152009
161506
172097
182919
192868
201267
209327
216492
216540
209822
184244
133538
118786
121963
127936
134072
137902
140058
141955
144423
147885
152520
158376
165557
173505
180648
185944
189941
194836
203037
209621
207684
200459
171646
143399
140473
142361
145667
148910
151048
152936
155409
158342
161149
163381
165120
166746
168938
172082
176851
183660
192134
201191
203783
200498
186269
158201
145912
143564
143741
145310
147451
150592
155067
161107
166730
170166
171740
172150
171721
171146
170860
171259
173290
179124
188190
194039
196876
187872
165022
150382
147190
147145
149866
154089
157600
160892
163760
165267
166487
167957
169758
171198
171895
172148
172398
173280
175437
179817
183968
184543
183107
174189
159339
154561
155530
157145
159485
161545
162411
162784
163377
164539
166427
169260
172628
175232
176275
176231
175876
176089
177380
179086
178460
177578
171360
159781
154347
154492
154289
155189
156114
156465
156405
156554
157493
159130
161092
163379
165794
167506
168410
169204
170587
172991
176352
178271
177787
175091
167096
156922
154505
155276
156697
159426
161696
162288
162234
162106
162321
163072
164208
165933
168303
170202
170813
171010
171385
172336
174454
176462
176632
175530
170339
160264
155336
155238
155944
157871
160070
160805
160615
160276
160281
160785
161925
163350
165159
167096
168580
169335
169918
171230
173984
177258
178998
179220
176471
168536
160071
158295
158669
160366
163061
164798
164946
163904
162136
160483
159747
159677
160675
162417
164479
165628
165930
166184
166894
168336
169974
170659
170051
167699
160738
152664
150358
150282
151313
153420
155459
156419
156715
156807
156852
157234
157945
158833
160422
163351
166149
167146
167011
166427
166118
166299
167112
167422
167213
165463
159670
153771
152785
153375
155453
158879
161609
161971
161224
160157
159152
158512
158279
158720
159844
162383
165387
166196
165348
164543
164472
165955
168716
167959
4.74089e+07
356687
90862.6
89508.7
89990.6
101306
117281
141139
171847
204230
223989
227379
224720
220889
217558
211830
186530
125196
102213
105707
115408
123389
128540
131916
135101
139360
145444
153608
163425
173828
183805
193341
202110
210457
217434
216995
210408
183765
133018
119242
122543
128401
134330
137982
140081
142035
144616
148097
152750
158822
166203
173826
180242
184847
188248
192854
200746
207247
205816
199407
171006
143560
140783
142183
145107
148236
150340
152061
154199
156854
159606
161991
164140
166501
169437
173142
178278
184853
192831
202102
204966
201632
188036
159827
146128
143499
143941
146111
149025
152670
157173
161923
165953
168347
169927
170877
171066
170683
170331
170428
171910
177010
185782
191728
195480
186563
163954
149973
146952
146991
149661
153854
157269
160788
163654
165589
166887
168298
170099
171668
172497
172782
173012
173761
175652
179343
182678
182844
181201
171839
157510
153444
154618
156704
159393
161756
162819
163227
163730
164804
166785
169809
173294
175509
176160
175910
175393
175651
177146
179194
178820
178380
172524
160814
154973
154882
154702
155770
156783
157000
156738
156540
157045
158384
160258
162738
165389
167183
167986
168555
169634
171834
175348
177393
177240
174816
167129
156984
154536
155337
156748
159325
161599
162292
162318
162228
162425
163114
164168
165950
168527
170486
171065
171311
171684
172582
174421
175962
176053
174901
169559
159446
154551
154479
155165
156900
159137
160041
159904
159588
159552
160136
161539
163500
165840
168112
169689
170406
170882
171998
174454
177575
179258
179610
176983
169111
160736
159004
159271
161069
163890
165606
165721
164781
163154
161106
159630
159049
159157
160201
161990
163489
164099
164535
165291
166835
169055
170388
170089
168377
162150
154057
151539
151378
152504
154699
156597
157306
157595
157489
157278
157437
157879
158454
159761
162568
165853
167489
167624
167552
167644
168302
169350
169627
169123
166495
159248
153100
152348
152781
154572
157320
159037
158855
157840
156549
155726
155621
156269
157534
159490
162630
166047
167232
166551
165943
166103
167739
170350
169525
4.69713e+07
749343
92247.8
90922.8
90404.8
101754
118166
142251
173083
204987
224343
227151
224317
219707
215547
208933
181427
120719
101853
106061
116107
124040
129404
132844
136172
140758
147148
155260
164415
173920
183628
193372
202971
212214
219295
218227
211816
184090
133407
120621
123863
129292
134850
138375
140590
142730
145538
149465
154697
161113
167945
174004
178731
182266
185277
189764
197692
204374
204209
198704
170625
143431
140766
141721
144666
147899
150023
151563
153248
155375
157839
160521
163595
167250
171496
176239
181036
185914
192860
202175
205482
202534
189778
161543
146605
143888
144810
147692
151533
155324
158966
162150
164384
166233
167968
169434
170199
170188
170008
170137
171547
176111
183829
188639
192012
184018
162430
149531
146989
147195
149818
153838
157172
160642
163507
165509
166909
168538
170505
172301
173338
173663
173908
174635
176449
179771
182262
181889
179410
169038
155161
151857
153175
155890
159190
161957
163231
163674
164142
165250
167385
170521
173846
175769
175970
175367
174865
175283
177024
179484
179555
179403
173602
161552
155367
154965
154974
156402
157875
158345
158178
157808
157814
158585
160180
162626
165374
167205
167977
168404
169196
171100
174421
176441
176537
174558
167151
157014
154403
155184
156487
158770
160957
161781
161933
161931
162183
162889
164032
166000
168712
170767
171420
171724
172122
172949
174375
175469
175463
174212
168742
158669
153947
153831
154570
156050
158217
159354
159313
159022
158989
159652
161270
163621
166385
169034
170745
171454
171871
172784
174776
177446
178856
179048
176528
168843
160677
159021
159239
160921
163472
164953
165076
164309
162922
161067
159437
158476
158233
158985
160958
162657
163214
163631
164286
165683
168133
169957
169951
168673
163335
155638
153106
152906
154140
156427
158184
158812
158995
158576
157975
157957
158270
158689
159838
162452
165897
168095
168885
169449
170169
171417
172763
173011
172175
168376
158991
152220
151305
151337
152589
154640
155532
155203
154212
153357
153200
153737
154778
156223
158460
161874
165992
168236
168072
167678
167984
169672
172045
171121
4.72903e+07
408378
94400.5
92323.6
91800.3
103277
119698
143637
174414
205966
225083
227931
224774
220067
215574
208522
178411
117521
101337
105982
115477
123512
128926
133183
137677
143051
149672
157314
165421
174096
183493
193505
203901
214290
221619
219973
213890
185147
134568
122582
125264
130036
135190
138754
141314
143974
147575
152410
158217
164160
169410
173568
176689
179146
181781
186367
194874
202222
203628
198519
170263
142998
140381
141146
144247
147625
149800
151174
152402
153951
156053
159062
163584
169248
175249
180513
183861
186608
192097
201844
205794
203137
191223
163177
147438
144985
146401
150147
154527
157775
160023
161275
162622
164311
166210
168017
169180
169617
169711
170064
171752
176433
183384
186577
188237
180892
160530
148982
147175
147588
150263
154158
157500
160584
163305
165365
167021
168799
170970
173204
174542
174972
175158
175747
177513
180587
182352
181657
178173
166424
152628
150171
151718
154996
158835
162046
163593
164135
164622
165783
168027
171144
174100
175616
175631
174914
174439
174999
177012
179725
180309
180292
174463
162082
155517
154910
155169
156866
158820
159659
159623
159250
159098
159575
160937
163168
165917
167776
168530
168862
169358
170862
173747
175565
175701
174057
166742
156726
154036
154756
155914
157937
160074
161052
161295
161436
161786
162499
163765
166010
168915
170975
171707
172036
172429
173045
173949
174621
174470
173112
167698
157994
153589
153450
154376
155692
157710
158935
158999
158737
158747
159503
161247
163795
166821
169793
171642
172342
172695
173375
174841
176899
177900
177794
175290
167629
159433
157697
157788
159302
161733
163317
163416
162686
161382
160081
159341
159126
159254
160057
161496
162683
163154
163513
164105
165295
167522
169285
169487
168600
164009
156870
154482
154411
155705
157999
159764
160437
160528
159813
158956
158816
159049
159415
160590
163199
166707
169360
170909
172163
173542
175246
176739
176804
175591
170019
158117
150817
149627
149432
150123
151348
152244
152428
152090
151819
151946
152431
153315
154867
157375
160961
165267
168548
169401
169336
169697
171308
173556
172647
4.70094e+07
706945
95800
93833.3
93356.8
104760
121036
145008
176412
208257
226864
229700
226149
221307
216772
209656
176930
115717
100995
105365
113308
121439
127973
133651
139478
145880
152726
159750
166761
174509
183389
193436
204602
216337
224090
222376
216982
187006
135909
124629
126182
130311
135126
138834
141994
145662
150532
156364
162148
166869
170450
173074
175004
176654
178954
183578
192795
200882
203514
198447
169647
142407
139915
140859
144264
147758
149885
151021
151864
152929
154809
158578
164881
172417
179554
183971
185643
187006
191442
200862
205439
203323
192138
164316
148437
146561
148632
152925
157058
159372
160008
160375
161195
162709
164711
166753
168208
169020
169460
170237
172287
177149
183539
185623
185683
178152
158497
148276
147413
148095
150983
154951
158328
160998
163289
165173
167108
169399
172065
174594
176101
176566
176679
177186
178947
181932
183137
182034
177694
164750
150750
148685
150290
153992
158371
161918
163776
164560
165127
166299
168513
171460
174077
175349
175273
174526
174055
174708
177017
179951
181019
180823
174985
162302
155422
154735
155136
157069
159640
160901
160954
160587
160348
160733
162055
164330
167072
168819
169510
169697
169905
171145
173564
175033
175005
173488
166196
156327
153482
154099
155084
156971
159163
160341
160710
160977
161413
162159
163602
166174
169172
170930
171643
171960
172217
172701
173450
173931
173630
172196
166954
157562
153245
153199
154381
155687
157569
158858
159071
158866
158958
159820
161592
164142
167224
170275
172112
172736
173037
173580
174798
176415
177046
176735
174125
166384
158001
155929
155727
156888
159043
160621
160843
160337
159594
159217
159284
159644
160461
161806
163309
164090
164286
164433
164926
165952
167686
168840
168963
167975
163297
156842
155051
155136
156595
159141
160938
161491
161545
160840
159970
159787
160073
160634
162025
164859
168541
171516
173504
175017
176486
178099
179641
179654
178322
171647
157555
149747
148110
147355
147704
149120
150752
151480
151584
151475
151454
151640
152313
153800
156372
160017
164204
167727
169546
170145
170789
172394
174772
174042
4.72047e+07
559368
95622.2
94498.4
94608.1
106234
122811
147170
179347
211611
229296
232090
228426
223062
218797
211446
176372
115028
101429
104400
110743
118699
126465
133769
141135
148572
155592
162030
168222
175089
183282
193078
204644
217636
226445
225560
221144
189488
136982
126158
126641
130181
134764
138723
142688
147669
153703
159841
164836
168551
171233
173034
174267
175464
177501
182052
191835
200598
203953
198430
168619
141752
139475
140776
144437
147994
149984
150860
151436
152292
154243
159219
166841
175888
182620
185462
186352
187100
190842
199578
204295
202982
192415
164842
149437
148576
150935
155233
158675
159892
159915
159810
160268
161544
163519
165637
167347
168473
169417
170680
173176
178175
183934
185190
184529
176491
157052
147606
147464
148541
151818
156064
159401
161868
163600
165164
167101
169760
172980
176044
177943
178575
178690
179191
180944
183619
184269
182864
177924
164218
150246
148045
149447
153055
157700
161679
163855
164738
165400
166638
168715
171357
173758
174844
174687
174002
173592
174387
177003
180159
181461
181097
175339
162497
155230
154564
155083
157137
159966
161702
162023
161818
161681
162051
163347
165720
168512
170188
170855
170911
170997
172026
173909
174864
174709
172965
165487
155705
152864
153389
154258
156099
158478
159872
160405
160774
161270
162060
163589
166240
169086
170579
171057
171218
171460
171981
172656
173142
172815
171545
166669
157499
153088
152972
154332
155746
157649
159063
159417
159364
159623
160597
162263
164627
167603
170501
172102
172619
172974
173566
174619
175840
176190
175642
172870
164732
156089
153805
153425
154238
156107
157918
158479
158424
158345
158602
159140
160100
161526
163620
165674
166577
166728
166586
166792
167488
168552
168858
168682
167035
161712
155819
154684
155104
156753
159654
161796
162383
162236
161564
160853
160770
161251
162177
163976
167125
170903
173753
175416
176545
177609
179122
180707
180640
179015
171195
156584
149310
147720
147067
147618
149251
150945
151848
151976
151731
151451
151457
151918
153134
155457
158956
163027
166441
168432
169495
170679
172648
175662
175268
4.75838e+07
220091
94046.5
94057.3
95585
108337
126147
151120
183559
215494
230962
234060
230366
224437
220621
213487
176615
115130
102635
103779
108757
115943
124247
133263
142347
150709
157829
163744
169224
175262
182807
192177
203845
217864
227841
229489
225883
191915
137755
126775
126565
129832
134444
138902
143923
149838
156153
161551
165745
169133
171651
173375
174520
175554
177450
182157
192596
201699
205406
198616
167230
141163
139255
141017
144851
148312
150071
150751
151249
152338
155204
161024
169159
177474
183658
185801
186080
186501
190189
198104
202621
201872
191916
164611
150196
150282
152598
156544
159384
160102
159851
159585
159827
160894
162698
164752
166617
168156
169619
171523
174452
179454
184684
185470
184333
175903
156535
147454
147472
148874
152526
157083
160384
162584
163911
165124
166888
169594
173127
176664
179020
179981
180339
181004
182810
185255
185663
184071
178897
164837
150884
148600
149745
152734
157091
161224
163617
164775
165561
166712
168526
170849
173091
174116
173949
173381
173131
174148
177059
180415
181674
181150
175589
162751
155032
154434
155098
157115
159986
161945
162507
162410
162365
162928
164576
167241
170084
171668
172291
172284
172362
173189
174606
175252
175022
173031
165175
155195
152355
152755
153595
155585
158101
159689
160353
160828
161383
162249
163745
166235
168802
170060
170298
170239
170364
170907
171740
172563
172414
171518
167086
157940
153146
152959
154153
155597
157708
159367
159911
160100
160545
161545
162963
165008
167848
170488
171837
172305
172683
173399
174378
175292
175321
174460
171308
162732
154137
151895
151505
152152
153925
156058
157008
157292
157514
157914
158591
159770
161965
165178
168015
169345
169789
169766
169608
169614
169729
169456
168820
166180
159919
154669
153976
154617
156325
159426
161800
162464
162218
161816
161493
161658
162456
163756
165894
169101
172615
174866
175970
176755
177688
178759
179356
178652
175950
168233
156329
150153
149137
149390
150723
152424
153309
153340
152841
152356
151940
151812
152033
152863
154767
157984
161882
165055
166996
168316
169911
172199
176084
176236
4.76265e+07
184947
91917.3
94113.1
96375.9
110928
130537
156696
188908
218772
231787
235382
231748
225732
222242
215511
177323
115653
103740
103727
107762
114089
122192
132073
142768
151956
159083
164594
169663
175141
182054
190869
202337
217294
229162
233928
229901
193702
138240
126721
126236
129642
134647
139846
145552
151758
157364
161647
165473
168916
171872
174038
175400
176543
178669
184044
195371
204308
207712
199157
165840
140881
139470
141518
145326
148559
150096
150780
151692
153704
157575
163373
170365
177293
182300
184362
184528
185304
189345
196760
200699
199789
189971
163734
150517
150913
153245
156933
159541
160273
160044
159834
160067
160985
162526
164427
166380
168337
170492
173081
176238
181147
186012
186523
184849
175865
156322
147527
147439
148989
152925
157672
160967
163076
164205
165111
166565
169106
172650
176319
179012
180382
181043
181784
183702
186277
186785
185149
180142
166153
152141
149861
150869
153157
156870
160589
162884
164350
165424
166600
168164
170173
172289
173377
173280
172863
172832
174133
177318
180825
181867
181069
175760
163074
155009
154504
155333
157210
159981
162035
162750
162803
162936
163744
165616
168461
171466
173041
173531
173474
173534
174316
175778
176318
176117
173809
165501
155080
152220
152316
153179
155341
158135
159814
160575
161094
161716
162643
164014
166177
168496
169611
169686
169432
169419
169972
171106
172378
172546
171998
168031
158972
153447
153150
154083
155590
157905
159872
160626
160989
161544
162430
163583
165323
168035
170459
171577
171948
172337
173117
173912
174458
174145
173106
169620
160688
152433
150462
150245
151036
152952
155374
156626
157055
157336
157717
158446
159872
162494
166252
169663
171445