/*--------------------------------*- C++ -*----------------------------------*\
| =========                 |                                                 |
| \\      /  F ield         | OpenFOAM: The Open Source CFD Toolbox           |
|  \\    /   O peration     | Version:  2306                                  |
|   \\  /    A nd           | Website:  www.openfoam.com                      |
|    \\/     M anipulation  |                                                 |
\*---------------------------------------------------------------------------*/
FoamFile
{
    version     2.0;
    format      ascii;
    arch        "LSB;label=32;scalar=64";
    class       volVectorField;
    location    "0.17";
    object      U;
}
// * * * * * * * * * * * * * * * * * * * * * * * * * * * * * * * * * * * * * //

dimensions      [0 1 -1 0 0 0 0];

internalField   nonuniform List<vector> 
6000
(
(500 2.46298e-14 0)
(500 -2.53005e-14 0)
(500 -6.55645e-14 0)
(500 -3.39908e-15 0)
(500 -2.15881e-14 0)
(500 7.2064e-15 0)
(500 -4.12654e-14 0)
(500 -4.30255e-14 0)
(500 -7.66487e-14 0)
(500 -3.3327e-14 0)
(500 -1.32934e-13 0)
(500 -1.02745e-13 0)
(500 -1.09508e-13 0)
(500 -9.02047e-14 0)
(500 -1.29409e-14 0)
(500 -4.64553e-14 0)
(500 -3.60183e-14 0)
(500 2.49642e-14 0)
(500 7.48762e-14 0)
(500 5.03995e-14 0)
(500 4.66336e-14 0)
(500 -3.30843e-14 0)
(500 -8.54704e-14 0)
(500 -7.88527e-14 0)
(500 -6.57864e-14 0)
(500 -2.28967e-14 0)
(500 1.0179e-13 0)
(500 2.21381e-13 0)
(500 1.9003e-13 0)
(500 8.38933e-14 0)
(500 1.36237e-13 0)
(500 6.41744e-14 0)
(500 1.58496e-13 0)
(500 2.07647e-13 0)
(500 1.29294e-13 0)
(500 4.7705e-14 0)
(500 4.51991e-14 0)
(500 9.77294e-14 0)
(500 1.11238e-13 0)
(500 6.74859e-14 0)
(500 4.00476e-14 0)
(500 7.79685e-14 0)
(500 1.62346e-13 0)
(500 1.35581e-13 0)
(500 1.50408e-13 0)
(500 1.65892e-15 0)
(500 -7.28036e-14 0)
(500 -8.58815e-14 0)
(500 -4.90071e-14 0)
(500 -9.04212e-14 0)
(500 8.18941e-14 0)
(500 1.16841e-13 0)
(500 9.62412e-14 0)
(500 -5.18625e-14 0)
(500 -9.8472e-15 0)
(500 -6.14355e-14 0)
(500 -3.4227e-14 0)
(500 9.68351e-15 0)
(500 1.92236e-14 0)
(500 2.76879e-14 0)
(500 7.13679e-14 0)
(500 8.44723e-14 0)
(500 1.61245e-13 0)
(500 1.30207e-13 0)
(500 4.516e-14 0)
(500 3.81348e-14 0)
(500 8.40967e-14 0)
(500 7.38427e-14 0)
(500 -1.00822e-13 0)
(500 6.35977e-13 0)
(500 -1.43289e-12 0)
(500 -4.3345e-13 0)
(500 2.05798e-11 0)
(500 -5.68796e-11 0)
(500 -4.66025e-12 0)
(500 9.20659e-10 0)
(500 -4.08282e-09 0)
(500 1.0279e-08 0)
(500 -1.57876e-09 0)
(500 -5.92388e-08 0)
(500 2.53687e-07 0)
(500 -3.30264e-07 0)
(499.999 -4.4387e-07 0)
(499.997 4.16717e-06 0)
(499.994 -9.07523e-06 0)
(499.988 1.01344e-05 0)
(499.975 2.1421e-05 0)
(499.95 -7.21006e-05 0)
(499.904 0.000101054 0)
(499.825 0.000152037 0)
(499.704 -0.000624945 0)
(499.551 0.00102546 0)
(499.427 -0.000191042 0)
(499.393 -0.000219127 0)
(499.393 -0.000148441 0)
(499.407 -3.28462e-05 0)
(499.448 0.000100291 0)
(499.534 0.00029322 0)
(499.674 0.00039514 0)
(499.868 -0.000341026 0)
(500.107 -0.000147794 0)
(500.379 0.00115293 0)
(500.673 -0.000187078 0)
(500.977 -0.00204838 0)
(501.284 0.000964756 0)
(501.586 0.00391294 0)
(501.884 -0.00019005 0)
(502.178 -0.00360223 0)
(502.463 0.000555962 0)
(502.735 0.00552251 0)
(502.999 0.00107167 0)
(503.255 -0.0051591 0)
(503.499 -0.00179606 0)
(503.722 0.00651807 0)
(503.928 0.0043099 0)
(504.12 -0.00432874 0)
(504.295 -0.00460648 0)
(504.447 0.00253489 0)
(504.574 0.00524098 0)
(504.686 -0.00056861 0)
(504.783 -0.00387695 0)
(504.866 -0.00127752 0)
(504.935 0.00305181 0)
(504.994 0.00238706 0)
(505.049 -0.00145335 0)
(505.103 -0.00263819 0)
(505.155 -0.00084821 0)
(505.204 0.00167877 0)
(505.249 0.00126495 0)
(505.287 -0.000609093 0)
(505.307 -0.000994599 0)
(505.312 -0.000455256 0)
(505.311 0.000223914 0)
(505.309 0.000259887 0)
(505.307 5.95675e-05 0)
(505.304 -0.000276645 0)
(505.299 -0.000208587 0)
(505.291 -3.55193e-07 0)
(505.278 0.00016455 0)
(505.261 0.000172874 0)
(505.241 -8.4823e-05 0)
(505.219 -0.000399911 0)
(505.197 -0.000252722 0)
(505.177 8.93968e-05 0)
(505.16 0.00020508 0)
(505.148 0.000192811 0)
(505.141 5.73125e-05 0)
(505.136 -5.95796e-05 0)
(505.131 -8.94491e-05 0)
(505.127 -0.000145842 0)
(505.122 -0.000171769 0)
(505.118 -1.28171e-05 0)
(505.114 0.000124161 0)
(505.111 0.000205974 0)
(505.11 0.000258153 0)
(505.111 8.46671e-05 0)
(505.112 -0.000116894 0)
(505.112 -0.00018838 0)
(505.112 -0.000252687 0)
(505.112 -0.000193972 0)
(505.112 2.51045e-05 0)
(505.114 0.000162135 0)
(505.117 0.000182312 0)
(505.122 0.000166551 0)
(505.129 6.03548e-05 0)
(505.137 -7.33668e-05 0)
(505.147 -0.000117262 0)
(505.157 -0.000139449 0)
(505.166 -8.83839e-05 0)
(505.174 7.68633e-05 0)
(505.182 0.000160003 0)
(505.191 0.000157766 0)
(505.198 0.000138171 0)
(505.202 6.57258e-05 0)
(505.204 -7.53177e-05 0)
(505.204 -0.000136258 0)
(505.204 -0.00012754 0)
(505.202 -6.59237e-05 0)
(505.2 4.1788e-05 0)
(505.198 8.26187e-05 0)
(505.195 8.85288e-05 0)
(505.192 5.69736e-05 0)
(505.188 -1.39338e-05 0)
(505.183 -9.00397e-05 0)
(505.176 -0.000106778 0)
(505.169 -9.79868e-05 0)
(505.162 -7.48383e-05 0)
(505.156 -4.73795e-05 0)
(505.152 9.75466e-07 0)
(505.149 3.39462e-05 0)
(505.147 5.85052e-05 0)
(505.146 6.74473e-05 0)
(505.145 5.19106e-05 0)
(505.143 3.22857e-05 0)
(505.141 1.90455e-05 0)
(505.138 4.25538e-06 0)
(505.134 -3.39975e-06 0)
(505.129 1.75916e-05 0)
(505.124 3.48665e-05 0)
(505.119 4.07434e-05 0)
(505.117 4.19786e-05 0)
(505.117 5.73705e-05 0)
(505.116 5.6923e-05 0)
(505.117 4.51133e-05 0)
(505.118 -1.02818e-05 0)
(505.12 -7.57963e-05 0)
(505.123 -0.000106052 0)
(505.129 -0.000118644 0)
(505.137 -0.000114794 0)
(505.147 -7.56432e-05 0)
(505.157 -2.51624e-05 0)
(505.166 1.25856e-05 0)
(505.173 5.71959e-05 0)
(505.178 0.000101326 0)
(505.182 7.57612e-05 0)
(505.186 5.21966e-05 0)
(505.19 8.13385e-06 0)
(505.194 -4.06138e-05 0)
(505.198 -6.09757e-05 0)
(505.2 5.10013e-07 0)
(505.201 3.84039e-05 0)
(505.2 7.17263e-05 0)
(505.199 8.26347e-05 0)
(505.198 4.30073e-05 0)
(505.197 -1.11051e-05 0)
(505.195 -6.56067e-05 0)
(505.193 -9.38764e-05 0)
(505.189 -7.74407e-05 0)
(505.184 -2.61895e-05 0)
(505.177 3.94713e-05 0)
(505.17 0.000102594 0)
(505.163 0.00010804 0)
(505.158 9.5323e-05 0)
(505.154 1.37169e-05 0)
(505.152 -0.000111598 0)
(505.15 -0.000122435 0)
(505.148 -8.96869e-05 0)
(505.147 -3.61277e-05 0)
(505.145 4.5935e-05 0)
(505.143 0.000102765 0)
(505.141 0.000101842 0)
(505.14 7.52477e-05 0)
(505.138 3.36328e-05 0)
(505.137 -4.2448e-05 0)
(505.135 -9.79337e-05 0)
(505.131 -0.000102502 0)
(505.126 -8.18142e-05 0)
(505.12 -1.72325e-05 0)
(505.115 6.09491e-05 0)
(505.112 5.63842e-05 0)
(505.111 2.76191e-05 0)
(505.112 2.19027e-05 0)
(505.113 -6.9478e-06 0)
(505.117 -5.04412e-06 0)
(505.121 1.09051e-05 0)
(505.128 3.45639e-05 0)
(505.136 4.75174e-05 0)
(505.146 8.7287e-05 0)
(505.157 0.00015952 0)
(505.167 2.52033e-05 0)
(505.176 -3.47085e-05 0)
(505.183 -8.84398e-05 0)
(505.187 -8.81047e-05 0)
(505.19 -6.01495e-05 0)
(505.192 -2.35475e-05 0)
(505.193 2.3087e-05 0)
(505.195 3.47661e-05 0)
(505.197 -7.57546e-06 0)
(505.2 -3.4614e-05 0)
(505.203 -6.53275e-05 0)
(505.204 -7.21276e-05 0)
(505.204 -4.53873e-05 0)
(505.204 -2.97761e-05 0)
(505.202 2.16773e-05 0)
(505.199 0.000113425 0)
(505.196 0.000157203 0)
(505.191 0.000139394 0)
(505.185 0.000100538 0)
(505.179 -4.89892e-06 0)
(505.173 -0.000138747 0)
(505.166 -0.00018506 0)
(505.16 -0.000164953 0)
(505.154 -8.85504e-05 0)
(505.149 1.92423e-05 0)
(505.146 0.00010295 0)
(505.145 9.52225e-05 0)
(505.144 6.2483e-05 0)
(505.144 -1.05787e-05 0)
(505.145 -0.000114125 0)
(505.144 -0.000142419 0)
(505.142 -0.000126339 0)
(505.14 -5.57664e-05 0)
(505.136 4.61164e-05 0)
(505.132 9.79143e-05 0)
(505.127 0.000106339 0)
(505.121 8.71213e-05 0)
(505.115 2.33037e-05 0)
(505.109 -0.000129693 0)
(505.105 -0.000114351 0)
(505.103 -6.65862e-05 0)
(500 -3.58268e-14 0)
(500 -1.30289e-13 0)
(500 -2.05288e-13 0)
(500 -1.32357e-13 0)
(500 -2.49538e-14 0)
(500 -9.1694e-14 0)
(500 -2.46086e-13 0)
(500 -1.20848e-13 0)
(500 -2.19772e-13 0)
(500 -1.41184e-13 0)
(500 -2.55277e-13 0)
(500 -2.48896e-13 0)
(500 -2.19629e-13 0)
(500 -3.02483e-13 0)
(500 -2.08047e-13 0)
(500 -1.78071e-13 0)
(500 -1.28816e-13 0)
(500 -4.34495e-14 0)
(500 1.83061e-13 0)
(500 8.45093e-14 0)
(500 9.71398e-14 0)
(500 -1.83358e-13 0)
(500 -2.0783e-13 0)
(500 -1.65351e-13 0)
(500 -8.65778e-14 0)
(500 7.408e-14 0)
(500 2.76847e-13 0)
(500 4.27337e-13 0)
(500 3.10382e-13 0)
(500 3.20016e-13 0)
(500 2.80671e-13 0)
(500 1.579e-13 0)
(500 2.03763e-13 0)
(500 2.40593e-13 0)
(500 1.61586e-13 0)
(500 1.0665e-13 0)
(500 8.11931e-14 0)
(500 2.48336e-14 0)
(500 2.64107e-14 0)
(500 -4.6225e-14 0)
(500 -1.0321e-13 0)
(500 -1.07583e-14 0)
(500 9.72403e-14 0)
(500 8.17366e-14 0)
(500 1.38566e-13 0)
(500 5.98938e-14 0)
(500 -1.74162e-13 0)
(500 -1.63749e-13 0)
(500 -1.19718e-13 0)
(500 -2.48552e-13 0)
(500 -9.40318e-14 0)
(500 2.16689e-14 0)
(500 8.40651e-15 0)
(500 -1.1471e-13 0)
(500 -1.06278e-14 0)
(500 -1.21952e-13 0)
(500 -6.90213e-14 0)
(500 6.68302e-15 0)
(500 3.21879e-15 0)
(500 1.88857e-13 0)
(500 3.23507e-13 0)
(500 2.28067e-13 0)
(500 2.11395e-13 0)
(500 3.69348e-14 0)
(500 -8.26796e-14 0)
(500 -1.72075e-14 0)
(500 2.79417e-14 0)
(500 6.64412e-14 0)
(500 -2.10728e-13 0)
(500 1.61456e-12 0)
(500 -5.84753e-12 0)
(500 5.25489e-12 0)
(500 3.06505e-11 0)
(500 -1.45743e-10 0)
(500 1.86097e-10 0)
(500 1.04539e-09 0)
(500 -6.10721e-09 0)
(500 1.48461e-08 0)
(500 -6.43462e-09 0)
(500 -9.05737e-08 0)
(500 3.31685e-07 0)
(500 -3.96155e-07 0)
(499.999 -1.08857e-06 0)
(499.997 6.20824e-06 0)
(499.994 -1.34858e-05 0)
(499.988 6.58449e-06 0)
(499.975 4.30867e-05 0)
(499.95 -0.000130651 0)
(499.904 0.000123532 0)
(499.825 0.000241174 0)
(499.703 -0.000901048 0)
(499.551 0.000968016 0)
(499.428 9.03976e-05 0)
(499.392 -0.000348843 0)
(499.393 -0.000288364 0)
(499.406 -0.00017401 0)
(499.448 1.40883e-05 0)
(499.534 0.000391437 0)
(499.674 0.00042417 0)
(499.868 -0.000200032 0)
(500.107 0.000331687 0)
(500.379 0.000771184 0)
(500.673 -0.00139835 0)
(500.977 -0.00215626 0)
(501.283 0.00190447 0)
(501.586 0.00317654 0)
(501.886 -0.00181202 0)
(502.179 -0.00393055 0)
(502.462 0.00226756 0)
(502.735 0.00562174 0)
(503.001 -0.00103441 0)
(503.256 -0.00671324 0)
(503.497 -0.000650188 0)
(503.72 0.00764542 0)
(503.931 0.00360867 0)
(504.123 -0.00554385 0)
(504.295 -0.00484808 0)
(504.446 0.00376289 0)
(504.575 0.0051298 0)
(504.688 -0.000946708 0)
(504.784 -0.00434171 0)
(504.865 -0.000785476 0)
(504.934 0.00376659 0)
(504.995 0.0025297 0)
(505.052 -0.0016591 0)
(505.104 -0.00348649 0)
(505.155 -0.000912225 0)
(505.204 0.00234691 0)
(505.25 0.00216717 0)
(505.288 -0.000184504 0)
(505.307 -0.00129072 0)
(505.312 -0.000747738 0)
(505.311 4.53517e-05 0)
(505.309 0.0002635 0)
(505.307 9.81291e-05 0)
(505.304 -0.000325135 0)
(505.299 -0.000240784 0)
(505.291 0.000200095 0)
(505.278 0.000478669 0)
(505.261 0.000410512 0)
(505.241 -0.000186916 0)
(505.219 -0.000877407 0)
(505.197 -0.000793712 0)
(505.177 -0.00021277 0)
(505.16 0.000351079 0)
(505.148 0.000640602 0)
(505.14 0.000562888 0)
(505.136 -4.71687e-05 0)
(505.131 -0.000329191 0)
(505.127 -0.000506673 0)
(505.123 -0.000685198 0)
(505.118 -0.000431385 0)
(505.114 0.000145958 0)
(505.112 0.000529624 0)
(505.11 0.000851835 0)
(505.111 0.000756806 0)
(505.112 0.000182631 0)
(505.112 -0.000203156 0)
(505.112 -0.000524577 0)
(505.112 -0.000733943 0)
(505.112 -0.000440311 0)
(505.114 6.84364e-05 0)
(505.117 0.000314682 0)
(505.122 0.000413712 0)
(505.129 0.000399241 0)
(505.137 0.00015196 0)
(505.147 -2.81496e-05 0)
(505.156 -0.00024634 0)
(505.166 -0.000461328 0)
(505.174 -0.000344299 0)
(505.183 7.80464e-05 0)
(505.191 0.000190507 0)
(505.198 0.000272458 0)
(505.202 0.000331876 0)
(505.204 0.000136591 0)
(505.204 -0.000110135 0)
(505.204 -0.000215637 0)
(505.202 -0.00029299 0)
(505.2 -0.000150248 0)
(505.198 -4.44791e-05 0)
(505.195 3.70571e-05 0)
(505.192 0.000146803 0)
(505.188 0.000187475 0)
(505.183 7.6471e-05 0)
(505.176 -2.52162e-05 0)
(505.169 -7.52705e-05 0)
(505.162 -0.000150664 0)
(505.156 -0.000190597 0)
(505.152 -0.0001636 0)
(505.149 -0.000119525 0)
(505.147 -1.46543e-05 0)
(505.146 0.000169312 0)
(505.145 0.000224248 0)
(505.143 0.000187705 0)
(505.141 0.000145274 0)
(505.138 4.11554e-05 0)
(505.134 -6.82306e-05 0)
(505.13 -8.6288e-05 0)
(505.125 -7.42892e-05 0)
(505.12 -6.84078e-05 0)
(505.117 3.28118e-05 0)
(505.117 0.00017868 0)
(505.116 0.00020347 0)
(505.117 0.000223964 0)
(505.118 0.000211525 0)
(505.119 4.62326e-05 0)
(505.123 -0.000145492 0)
(505.129 -0.000279951 0)
(505.137 -0.000350674 0)
(505.147 -0.000347177 0)
(505.157 -0.00027841 0)
(505.166 -0.000176156 0)
(505.173 4.29056e-05 0)
(505.178 0.000310687 0)
(505.182 0.000315149 0)
(505.186 0.000226666 0)
(505.19 8.71834e-05 0)
(505.194 -9.62566e-05 0)
(505.198 -0.000232017 0)
(505.2 -0.00013741 0)
(505.201 6.01557e-06 0)
(505.2 0.000152373 0)
(505.199 0.000302086 0)
(505.198 0.000272992 0)
(505.197 0.000195029 0)
(505.195 2.52191e-05 0)
(505.193 -0.000231879 0)
(505.189 -0.000363142 0)
(505.184 -0.000316637 0)
(505.177 -0.000197925 0)
(505.17 7.1004e-05 0)
(505.163 0.000292893 0)
(505.158 0.000393637 0)
(505.153 0.000429809 0)
(505.151 3.60592e-05 0)
(505.15 -0.000328243 0)
(505.148 -0.000341057 0)
(505.147 -0.000324385 0)
(505.145 -0.000191179 0)
(505.143 0.000113089 0)
(505.141 0.000298528 0)
(505.14 0.000348071 0)
(505.138 0.000370871 0)
(505.136 0.000268375 0)
(505.135 -9.69127e-05 0)
(505.131 -0.000287139 0)
(505.126 -0.000313956 0)
(505.12 -0.000287122 0)
(505.115 -0.000124487 0)
(505.112 -4.70028e-05 0)
(505.111 5.72174e-05 0)
(505.112 0.000140398 0)
(505.113 0.000138007 0)
(505.116 1.92035e-05 0)
(505.121 1.2894e-05 0)
(505.128 1.29197e-05 0)
(505.137 8.53254e-06 0)
(505.147 0.000116354 0)
(505.157 0.000316591 0)
(505.167 0.000302421 0)
(505.176 0.00022042 0)
(505.182 8.26519e-05 0)
(505.187 -0.00013936 0)
(505.19 -0.00026017 0)
(505.192 -0.000324171 0)
(505.193 -0.00027185 0)
(505.195 -4.97181e-05 0)
(505.197 2.12542e-05 0)
(505.2 4.2373e-05 0)
(505.203 2.41956e-05 0)
(505.204 -1.92067e-05 0)
(505.204 -5.21805e-05 0)
(505.204 -0.00023027 0)
(505.202 -0.000326353 0)
(505.2 -0.000223784 0)
(505.196 0.00010568 0)
(505.191 0.000330603 0)
(505.185 0.000452008 0)
(505.179 0.000551999 0)
(505.173 0.000217692 0)
(505.166 -0.000250911 0)
(505.159 -0.000440009 0)
(505.154 -0.00047009 0)
(505.15 -0.000372317 0)
(505.147 -5.38981e-05 0)
(505.145 0.000214436 0)
(505.144 0.000325625 0)
(505.144 0.000418044 0)
(505.145 0.000141767 0)
(505.144 -0.000194223 0)
(505.142 -0.00032283 0)
(505.139 -0.000389454 0)
(505.136 -0.000255563 0)
(505.132 -7.47315e-05 0)
(505.127 0.000159245 0)
(505.121 0.000305941 0)
(505.115 0.000381538 0)
(505.109 0.000147529 0)
(505.105 -0.000171458 0)
(505.103 -0.000218274 0)
(500 3.66684e-15 0)
(500 -5.43524e-14 0)
(500 -7.87679e-14 0)
(500 -1.66419e-13 0)
(500 -1.34888e-13 0)
(500 -3.18777e-13 0)
(500 -5.61096e-13 0)
(500 -3.58315e-13 0)
(500 -2.45218e-13 0)
(500 -1.84518e-13 0)
(500 -2.73782e-13 0)
(500 -2.84917e-13 0)
(500 -2.48086e-13 0)
(500 -5.57743e-13 0)
(500 -3.75651e-13 0)
(500 -2.14764e-13 0)
(500 -1.63815e-13 0)
(500 -7.32291e-14 0)
(500 2.1753e-14 0)
(500 3.56037e-15 0)
(500 4.89111e-14 0)
(500 -3.83968e-14 0)
(500 -1.30721e-13 0)
(500 -8.21747e-14 0)
(500 1.45733e-13 0)
(500 2.31491e-13 0)
(500 3.55561e-13 0)
(500 4.22407e-13 0)
(500 3.28824e-13 0)
(500 4.07671e-13 0)
(500 3.06148e-13 0)
(500 4.79037e-14 0)
(500 5.6621e-14 0)
(500 2.2256e-13 0)
(500 2.18697e-13 0)
(500 2.26107e-13 0)
(500 5.3113e-14 0)
(500 -2.46897e-14 0)
(500 -9.30337e-14 0)
(500 -5.59943e-16 0)
(500 -2.22362e-14 0)
(500 -8.15838e-15 0)
(500 1.80163e-14 0)
(500 2.23047e-14 0)
(500 2.22788e-14 0)
(500 5.93859e-14 0)
(500 3.34312e-14 0)
(500 2.36014e-14 0)
(500 -1.42886e-13 0)
(500 -3.72024e-13 0)
(500 -3.78682e-13 0)
(500 -2.21177e-13 0)
(500 -1.74302e-13 0)
(500 -2.00755e-13 0)
(500 -1.08499e-13 0)
(500 -5.63463e-14 0)
(500 2.63938e-16 0)
(500 -1.66684e-14 0)
(500 1.30318e-13 0)
(500 1.39626e-13 0)
(500 2.63293e-13 0)
(500 2.84185e-13 0)
(500 1.00351e-13 0)
(500 -1.62299e-13 0)
(500 -1.75888e-13 0)
(500 -3.03959e-14 0)
(500 1.11528e-13 0)
(500 7.61884e-14 0)
(500 -1.93609e-13 0)
(500 2.85097e-12 0)
(500 -8.83613e-12 0)
(500 9.83594e-12 0)
(500 3.87211e-11 0)
(500 -2.16169e-10 0)
(500 3.43163e-10 0)
(500 1.23599e-09 0)
(500 -8.47306e-09 0)
(500 2.30577e-08 0)
(500 -1.66775e-08 0)
(500 -1.06026e-07 0)
(500 4.48415e-07 0)
(500 -5.88819e-07 0)
(499.999 -1.26928e-06 0)
(499.997 8.16476e-06 0)
(499.994 -1.77361e-05 0)
(499.988 9.6144e-06 0)
(499.975 5.43116e-05 0)
(499.95 -0.00016702 0)
(499.904 0.000152888 0)
(499.825 0.000317086 0)
(499.704 -0.00113224 0)
(499.551 0.00109204 0)
(499.428 0.000440879 0)
(499.392 -0.000500253 0)
(499.393 -0.000404379 0)
(499.406 -0.000314953 0)
(499.448 -7.13735e-05 0)
(499.534 0.000428662 0)
(499.674 0.000291701 0)
(499.868 -0.000238825 0)
(500.107 0.000974867 0)
(500.379 0.000660464 0)
(500.673 -0.00269452 0)
(500.977 -0.00179205 0)
(501.282 0.00364052 0)
(501.586 0.00240836 0)
(501.887 -0.00420714 0)
(502.179 -0.00340748 0)
(502.46 0.00529532 0)
(502.735 0.00516618 0)
(503.002 -0.00424807 0)
(503.256 -0.00765747 0)
(503.496 0.00254576 0)
(503.719 0.00880108 0)
(503.931 0.0011435 0)
(504.124 -0.00751927 0)
(504.296 -0.00334099 0)
(504.444 0.00567503 0)
(504.575 0.00407932 0)
(504.689 -0.00285838 0)
(504.784 -0.00483988 0)
(504.865 0.000692362 0)
(504.934 0.00458056 0)
(504.996 0.0020028 0)
(505.053 -0.00263334 0)
(505.105 -0.00397961 0)
(505.155 -0.000148779 0)
(505.204 0.00293477 0)
(505.251 0.00200218 0)
(505.288 -0.000538022 0)
(505.307 -0.00142924 0)
(505.312 -0.000701748 0)
(505.311 0.000329171 0)
(505.31 0.000494304 0)
(505.308 0.000160216 0)
(505.305 -0.000454873 0)
(505.3 -0.000381195 0)
(505.291 0.000260893 0)
(505.278 0.000842112 0)
(505.261 0.00075382 0)
(505.241 -0.000199169 0)
(505.219 -0.00111039 0)
(505.197 -0.000983579 0)
(505.177 -0.000286656 0)
(505.161 0.00033414 0)
(505.149 0.000698531 0)
(505.14 0.000784119 0)
(505.135 0.000418894 0)
(505.131 -0.000290835 0)
(505.126 -0.000707363 0)
(505.122 -0.00100106 0)
(505.119 -0.000941153 0)
(505.115 -0.000356228 0)
(505.112 0.000392448 0)
(505.111 0.000945724 0)
(505.111 0.00111823 0)
(505.111 0.000623668 0)
(505.111 -5.67977e-05 0)
(505.112 -0.000532359 0)
(505.112 -0.000870356 0)
(505.113 -0.000800489 0)
(505.114 -0.000300362 0)
(505.118 0.00018811 0)
(505.123 0.000444909 0)
(505.129 0.000511172 0)
(505.137 0.000385494 0)
(505.146 0.00017047 0)
(505.156 -0.000126378 0)
(505.165 -0.000410826 0)
(505.174 -0.000473093 0)
(505.183 -0.000191989 0)
(505.192 0.000144641 0)
(505.198 0.000269711 0)
(505.202 0.000394981 0)
(505.203 0.000290344 0)
(505.204 9.11806e-05 0)
(505.203 -8.10498e-05 0)
(505.202 -0.000326364 0)
(505.2 -0.000255907 0)
(505.199 -0.00015918 0)
(505.196 -3.10819e-05 0)
(505.192 0.000125189 0)
(505.188 0.000196407 0)
(505.182 8.15205e-05 0)
(505.176 -1.18009e-05 0)
(505.168 -5.5943e-05 0)
(505.162 -0.000122983 0)
(505.156 -0.000216627 0)
(505.152 -0.000277534 0)
(505.149 -0.000279511 0)
(505.147 -0.000137851 0)
(505.146 0.000159817 0)
(505.145 0.000260087 0)
(505.143 0.000261721 0)
(505.141 0.000229293 0)
(505.138 0.000127976 0)
(505.134 -7.67675e-07 0)
(505.13 -5.25389e-05 0)
(505.125 -6.97154e-05 0)
(505.12 -0.000101986 0)
(505.117 2.55281e-05 0)
(505.117 0.000166062 0)
(505.116 0.00019045 0)
(505.117 0.000205929 0)
(505.118 0.000166699 0)
(505.119 -1.33029e-05 0)
(505.123 -0.000226514 0)
(505.129 -0.000346225 0)
(505.137 -0.000377146 0)
(505.147 -0.000354995 0)
(505.157 -0.000297813 0)
(505.166 -0.000242915 0)
(505.173 -6.18048e-05 0)
(505.178 0.000326641 0)
(505.182 0.000435508 0)
(505.186 0.000311052 0)
(505.19 0.000161172 0)
(505.194 -4.55741e-05 0)
(505.198 -0.000226191 0)
(505.2 -0.000101423 0)
(505.201 6.03925e-05 0)
(505.201 0.000190558 0)
(505.2 0.000331033 0)
(505.198 0.000255713 0)
(505.197 0.000120246 0)
(505.195 -1.5738e-05 0)
(505.192 -0.000238009 0)
(505.189 -0.000415702 0)
(505.184 -0.000327741 0)
(505.178 -0.000179845 0)
(505.171 2.90594e-05 0)
(505.164 0.000316943 0)
(505.158 0.000437449 0)
(505.153 0.000435168 0)
(505.15 0.000210134 0)
(505.149 -0.000316651 0)
(505.148 -0.000476506 0)
(505.147 -0.000419741 0)
(505.145 -0.000295045 0)
(505.144 -3.56458e-05 0)
(505.142 0.000288051 0)
(505.14 0.000451989 0)
(505.138 0.000469142 0)
(505.136 0.000403881 0)
(505.134 0.000100111 0)
(505.131 -0.000277194 0)
(505.126 -0.000369663 0)
(505.12 -0.000329758 0)
(505.115 -0.000197759 0)
(505.112 -0.000152244 0)
(505.111 -5.22186e-05 0)
(505.112 0.000135524 0)
(505.113 0.000186502 0)
(505.116 0.000118895 0)
(505.121 2.47069e-05 0)
(505.128 -2.71631e-06 0)
(505.137 -6.57077e-05 0)
(505.147 -2.76104e-05 0)
(505.158 0.00023813 0)
(505.168 0.00033767 0)
(505.176 0.000293958 0)
(505.182 0.00023768 0)
(505.186 3.98635e-05 0)
(505.189 -0.000217743 0)
(505.192 -0.000329582 0)
(505.193 -0.00041789 0)
(505.195 -0.000286587 0)
(505.198 -0.000116665 0)
(505.201 2.73809e-05 0)
(505.203 7.66808e-05 0)
(505.203 0.000120778 0)
(505.204 0.000135661 0)
(505.204 -0.000121983 0)
(505.202 -0.000399507 0)
(505.2 -0.000383027 0)
(505.196 -0.000201802 0)
(505.192 0.000196573 0)
(505.186 0.000500251 0)
(505.179 0.000664708 0)
(505.172 0.000544035 0)
(505.165 9.37607e-05 0)
(505.159 -0.000297526 0)
(505.154 -0.000537335 0)
(505.15 -0.000555868 0)
(505.147 -0.000396127 0)
(505.146 -6.12106e-06 0)
(505.145 0.000360126 0)
(505.144 0.000510492 0)
(505.144 0.000489314 0)
(505.143 5.52204e-05 0)
(505.142 -0.000281295 0)
(505.139 -0.000468007 0)
(505.136 -0.000472251 0)
(505.133 -0.00039601 0)
(505.128 -8.43558e-05 0)
(505.122 0.000372387 0)
(505.115 0.000509569 0)
(505.109 0.000368068 0)
(505.104 9.87566e-05 0)
(505.103 -0.000124874 0)
(500 -5.8664e-14 0)
(500 -3.35353e-14 0)
(500 -2.0944e-14 0)
(500 -2.58253e-13 0)
(500 -3.65805e-13 0)
(500 -6.48023e-13 0)
(500 -6.26028e-13 0)
(500 -5.61647e-13 0)
(500 -2.51169e-13 0)
(500 -1.44237e-13 0)
(500 -3.4194e-13 0)
(500 -2.52018e-13 0)
(500 -3.75947e-13 0)
(500 -5.00225e-13 0)
(500 -2.52068e-13 0)
(500 -1.60083e-14 0)
(500 -8.59802e-14 0)
(500 -1.85062e-13 0)
(500 -1.52569e-13 0)
(500 -8.88906e-14 0)
(500 -3.59448e-14 0)
(500 -9.26084e-14 0)
(500 -8.12787e-14 0)
(500 -1.55452e-16 0)
(500 2.16844e-13 0)
(500 3.61623e-13 0)
(500 3.63514e-13 0)
(500 3.33209e-13 0)
(500 3.84225e-13 0)
(500 2.94406e-13 0)
(500 2.0902e-13 0)
(500 3.21893e-14 0)
(500 9.25591e-15 0)
(500 1.12628e-13 0)
(500 8.32192e-14 0)
(500 1.58691e-13 0)
(500 -1.28519e-13 0)
(500 -1.30755e-13 0)
(500 -1.57015e-13 0)
(500 8.39344e-14 0)
(500 3.72121e-14 0)
(500 -1.09011e-13 0)
(500 -6.35892e-14 0)
(500 -9.14528e-14 0)
(500 -1.5338e-13 0)
(500 -1.72544e-13 0)
(500 1.02218e-13 0)
(500 5.66597e-14 0)
(500 -1.46417e-13 0)
(500 -3.05036e-13 0)
(500 -4.50545e-13 0)
(500 -4.23692e-13 0)
(500 -3.01359e-13 0)
(500 -2.79306e-13 0)
(500 -2.54908e-13 0)
(500 -2.28396e-13 0)
(500 -5.47009e-14 0)
(500 9.13886e-14 0)
(500 2.88649e-13 0)
(500 2.2442e-13 0)
(500 2.01027e-13 0)
(500 1.50585e-13 0)
(500 -9.8815e-14 0)
(500 -9.52246e-14 0)
(500 -1.45721e-13 0)
(500 -1.58699e-13 0)
(500 6.1967e-14 0)
(500 2.38132e-14 0)
(500 -3.20351e-13 0)
(500 3.46198e-12 0)
(500 -1.08261e-11 0)
(500 1.37164e-11 0)
(500 3.96627e-11 0)
(500 -2.60822e-10 0)
(500 4.5711e-10 0)
(500 1.24646e-09 0)
(500 -9.98994e-09 0)
(500 2.89449e-08 0)
(500 -2.76913e-08 0)
(500 -1.05941e-07 0)
(500 4.9453e-07 0)
(500 -6.97238e-07 0)
(499.999 -1.33796e-06 0)
(499.997 8.93812e-06 0)
(499.994 -1.95091e-05 0)
(499.988 1.06445e-05 0)
(499.975 5.97675e-05 0)
(499.95 -0.000177811 0)
(499.904 0.000141704 0)
(499.825 0.000396367 0)
(499.704 -0.00122694 0)
(499.551 0.000957676 0)
(499.428 0.000812606 0)
(499.392 -0.000451423 0)
(499.393 -0.00048339 0)
(499.406 -0.000429568 0)
(499.448 -0.000164319 0)
(499.534 0.000376107 0)
(499.674 4.23926e-05 0)
(499.868 -7.88372e-05 0)
(500.107 0.00160973 0)
(500.379 0.000127492 0)
(500.673 -0.00366236 0)
(500.977 -0.000575247 0)
(501.282 0.0048491 0)
(501.587 0.000679495 0)
(501.887 -0.00596039 0)
(502.178 -0.00118512 0)
(502.46 0.00751389 0)
(502.735 0.00324514 0)
(503.002 -0.00737421 0)
(503.256 -0.00656266 0)
(503.494 0.00598829 0)
(503.719 0.00818543 0)
(503.932 -0.00198493 0)
(504.124 -0.00820726 0)
(504.295 -0.000121447 0)
(504.443 0.00672706 0)
(504.576 0.00211188 0)
(504.689 -0.00484528 0)
(504.783 -0.00424395 0)
(504.864 0.0027342 0)
(504.933 0.00464222 0)
(504.996 0.000995692 0)
(505.053 -0.00356897 0)
(505.105 -0.0035065 0)
(505.155 0.00108488 0)
(505.204 0.0030238 0)
(505.251 0.00108901 0)
(505.288 -0.000684189 0)
(505.307 -0.000947603 0)
(505.311 -0.000127027 0)
(505.311 0.000553938 0)
(505.31 0.000301761 0)
(505.309 -0.000321625 0)
(505.306 -0.000539365 0)
(505.3 -0.000287936 0)
(505.291 0.000380405 0)
(505.278 0.00096153 0)
(505.261 0.000708708 0)
(505.24 -0.000385843 0)
(505.219 -0.00119419 0)
(505.197 -0.000848905 0)
(505.178 -9.77968e-05 0)
(505.161 0.000375741 0)
(505.149 0.000694637 0)
(505.141 0.000908889 0)
(505.135 0.000752169 0)
(505.13 0.000118086 0)
(505.126 -0.000597916 0)
(505.123 -0.00100365 0)
(505.119 -0.00102598 0)
(505.116 -0.000668226 0)
(505.113 0.000198408 0)
(505.111 0.000957491 0)
(505.111 0.00113537 0)
(505.11 0.000873274 0)
(505.111 8.49965e-05 0)
(505.111 -0.000669774 0)
(505.112 -0.000912962 0)
(505.113 -0.000849927 0)
(505.115 -0.000362711 0)
(505.118 0.000206713 0)
(505.123 0.000549847 0)
(505.129 0.00059787 0)
(505.137 0.000424309 0)
(505.146 0.000124321 0)
(505.156 -0.000221835 0)
(505.165 -0.000437157 0)
(505.175 -0.00034407 0)
(505.184 -0.00018431 0)
(505.192 9.94928e-05 0)
(505.199 0.00035932 0)
(505.202 0.000423094 0)
(505.203 0.000252502 0)
(505.203 -1.25886e-05 0)
(505.203 -0.000313826 0)
(505.202 -0.000427243 0)
(505.201 -0.000258152 0)
(505.199 -5.25067e-05 0)
(505.196 0.000142916 0)
(505.193 0.000260089 0)
(505.188 0.000160048 0)
(505.182 -9.12936e-05 0)
(505.175 -0.000183768 0)
(505.168 -0.00016544 0)
(505.162 -0.000134831 0)
(505.156 -0.000152758 0)
(505.152 -0.000160766 0)
(505.149 -0.000124728 0)
(505.148 3.72297e-05 0)
(505.147 0.000149317 0)
(505.145 0.000147031 0)
(505.143 0.000149416 0)
(505.141 0.000152607 0)
(505.138 0.000139425 0)
(505.134 7.7363e-05 0)
(505.13 3.61259e-05 0)
(505.125 4.82097e-05 0)
(505.12 6.03895e-05 0)
(505.118 8.34568e-05 0)
(505.117 9.49391e-05 0)
(505.116 0.000113177 0)
(505.117 7.72617e-05 0)
(505.117 -1.00905e-05 0)
(505.119 -9.83806e-05 0)
(505.123 -0.000151746 0)
(505.129 -0.000206355 0)
(505.137 -0.000237206 0)
(505.147 -0.000228657 0)
(505.157 -0.000228434 0)
(505.166 -0.000246395 0)
(505.174 -0.000233002 0)
(505.178 8.175e-05 0)
(505.182 0.00039052 0)
(505.186 0.00037017 0)
(505.19 0.000286785 0)
(505.194 0.00011853 0)
(505.198 -6.71507e-05 0)
(505.2 -5.56588e-05 0)
(505.201 1.09588e-05 0)
(505.201 4.83411e-05 0)
(505.2 0.000132896 0)
(505.198 0.000120944 0)
(505.197 6.12357e-05 0)
(505.195 9.29653e-06 0)
(505.192 -0.000107561 0)
(505.189 -0.000290272 0)
(505.184 -0.000284235 0)
(505.178 -0.000126192 0)
(505.171 -3.2752e-05 0)
(505.164 0.000152729 0)
(505.158 0.00032618 0)
(505.153 0.000307803 0)
(505.15 0.000217835 0)
(505.148 -5.21739e-05 0)
(505.148 -0.000400529 0)
(505.147 -0.000367085 0)
(505.145 -0.000273241 0)
(505.144 -7.81443e-05 0)
(505.142 0.00019035 0)
(505.14 0.000440212 0)
(505.138 0.000447143 0)
(505.136 0.000413245 0)
(505.133 0.000231287 0)
(505.13 -0.000230035 0)
(505.126 -0.000482832 0)
(505.12 -0.000323847 0)
(505.115 -0.000202876 0)
(505.113 -0.000184311 0)
(505.112 -0.000110174 0)
(505.112 0.000135964 0)
(505.113 0.000188883 0)
(505.116 0.000208494 0)
(505.121 7.4681e-05 0)
(505.128 -3.21118e-05 0)
(505.137 -0.00010369 0)
(505.147 -0.000129778 0)
(505.158 0.000110627 0)
(505.168 0.000341282 0)
(505.176 0.000364747 0)
(505.182 0.000336279 0)
(505.186 0.000201381 0)
(505.189 -0.000132611 0)
(505.191 -0.000367327 0)
(505.193 -0.000410062 0)
(505.196 -0.000421729 0)
(505.198 -0.000220484 0)
(505.201 -3.76801e-06 0)
(505.202 5.63067e-05 0)
(505.203 8.29534e-05 0)
(505.204 6.58984e-05 0)
(505.203 -8.11036e-05 0)
(505.203 -0.000329409 0)
(505.2 -0.000305314 0)
(505.197 -0.000177541 0)
(505.192 9.57018e-05 0)
(505.186 0.000436071 0)
(505.179 0.000570332 0)
(505.172 0.000488224 0)
(505.165 0.000243228 0)
(505.158 -0.000118026 0)
(505.154 -0.000555984 0)
(505.15 -0.000558912 0)
(505.148 -0.000414373 0)
(505.146 -2.51318e-05 0)
(505.145 0.000336955 0)
(505.144 0.000485929 0)
(505.144 0.000426367 0)
(505.143 0.000183627 0)
(505.141 -0.00020333 0)
(505.139 -0.000572363 0)
(505.137 -0.000570843 0)
(505.133 -0.000278398 0)
(505.128 7.34112e-05 0)
(505.122 0.000406551 0)
(505.115 0.000307982 0)
(505.109 0.000223578 0)
(505.104 0.000170401 0)
(505.102 -2.42443e-05 0)
(500 2.03352e-14 0)
(500 -5.34023e-14 0)
(500 -2.12129e-13 0)
(500 -3.51928e-13 0)
(500 -5.04745e-13 0)
(500 -7.36489e-13 0)
(500 -6.7169e-13 0)
(500 -6.35404e-13 0)
(500 -4.05045e-13 0)
(500 -3.98933e-13 0)
(500 -4.66923e-13 0)
(500 -4.16601e-13 0)
(500 -4.54089e-13 0)
(500 -3.83849e-13 0)
(500 -3.58305e-13 0)
(500 -1.73108e-13 0)
(500 -1.63026e-13 0)
(500 -1.35442e-13 0)
(500 -2.49445e-13 0)
(500 -2.59195e-13 0)
(500 -1.3243e-13 0)
(500 -1.09346e-14 0)
(500 -5.60183e-14 0)
(500 -4.92621e-14 0)
(500 4.36565e-14 0)
(500 4.60323e-13 0)
(500 4.56571e-13 0)
(500 4.43608e-13 0)
(500 4.64844e-13 0)
(500 1.7634e-13 0)
(500 1.65805e-13 0)
(500 9.38465e-14 0)
(500 1.55255e-13 0)
(500 8.90736e-14 0)
(500 -1.83833e-14 0)
(500 -5.79401e-14 0)
(500 -2.00524e-14 0)
(500 -8.5068e-15 0)
(500 -4.66591e-15 0)
(500 1.01628e-14 0)
(500 3.94196e-14 0)
(500 -2.22504e-14 0)
(500 2.1561e-14 0)
(500 -5.42126e-14 0)
(500 -2.53827e-13 0)
(500 -2.45971e-13 0)
(500 -9.3095e-14 0)
(500 -2.13352e-13 0)
(500 -2.715e-13 0)
(500 -2.69562e-13 0)
(500 -2.45948e-13 0)
(500 -3.38816e-13 0)
(500 -2.25578e-13 0)
(500 -1.17103e-13 0)
(500 -1.32737e-13 0)
(500 -1.06022e-13 0)
(500 2.4228e-13 0)
(500 2.40756e-13 0)
(500 1.59424e-13 0)
(500 4.37709e-14 0)
(500 -4.44838e-14 0)
(500 -1.95505e-13 0)
(500 -3.58106e-13 0)
(500 -2.96243e-13 0)
(500 -1.32163e-13 0)