/*--------------------------------*- C++ -*----------------------------------*\
| =========                 |                                                 |
| \\      /  F ield         | OpenFOAM: The Open Source CFD Toolbox           |
|  \\    /   O peration     | Version:  2306                                  |
|   \\  /    A nd           | Website:  www.openfoam.com                      |
|    \\/     M anipulation  |                                                 |
\*---------------------------------------------------------------------------*/
FoamFile
{
    version     2.0;
    format      ascii;
    arch        "LSB;label=32;scalar=64";
    class       volVectorField;
    location    "0.17";
    object      U;
}
// * * * * * * * * * * * * * * * * * * * * * * * * * * * * * * * * * * * * * //

dimensions      [0 1 -1 0 0 0 0];

internalField   nonuniform List<vector> 
6000
(
(-2325.85 0.759341 0)
(-1093.42 -24.6606 0)
(-261.76 -7.73707 0)
(-289.024 -6.19206 0)
(-262.266 -2.59221 0)
(-192.118 -1.22862 0)
(-73.8036 -1.20399 0)
(59.9111 -0.694411 0)
(191.715 0.447093 0)
(300.337 0.361486 0)
(334.284 -0.662204 0)
(306.738 -0.201224 0)
(294.517 0.795875 0)
(310.608 2.70008 0)
(344.781 2.43295 0)
(351.717 1.7684 0)
(303.618 2.27151 0)
(57.9976 2.94411 0)
(-139.106 3.22772 0)
(-133.614 2.85527 0)
(-108.459 2.0394 0)
(-76.5513 1.05844 0)
(-51.5348 -0.0598138 0)
(-31.1702 1.52346 0)
(-7.74188 1.78725 0)
(23.7337 0.781745 0)
(62.3426 0.519942 0)
(104.881 0.470628 0)
(149.409 -0.110504 0)
(193.456 -0.0448518 0)
(230.836 0.616935 0)
(251.465 -0.558796 0)
(257.073 -3.02342 0)
(267.912 -7.31715 0)
(293.138 -8.25072 0)
(312.992 -5.7651 0)
(327.554 -6.2489 0)
(268.72 -6.84612 0)
(50.49 -6.79708 0)
(-62.7298 -5.11012 0)
(-64.6537 -3.17881 0)
(-43.6485 -2.05731 0)
(-9.53222 -1.77927 0)
(21.6716 -2.05107 0)
(47.7612 -2.41001 0)
(67.0646 -1.95099 0)
(75.4912 -1.13641 0)
(77.8451 -0.450591 0)
(83.9725 0.77675 0)
(102.95 0.92086 0)
(132.562 2.12103 0)
(165.206 2.81257 0)
(198.735 3.11998 0)
(227.884 2.81793 0)
(247.366 1.14613 0)
(259.133 -0.179184 0)
(279.191 -2.6061 0)
(309.605 -4.04222 0)
(313.896 -4.23714 0)
(304.202 -4.64663 0)
(195.152 -4.4616 0)
(46.9406 -3.75846 0)
(26.3241 -3.01868 0)
(48.4154 -2.21844 0)
(68.8297 -2.60473 0)
(76.2289 -4.18616 0)
(69.0975 -5.70415 0)
(60.1739 -6.01373 0)
(66.1866 -5.4226 0)
(83.7502 -4.42784 0)
(108.64 -3.57771 0)
(137.01 -3.12758 0)
(165.765 -2.857 0)
(189.352 -2.31107 0)
(199.798 -1.77756 0)
(199.119 -1.52906 0)
(198.061 -1.67225 0)
(209.302 -1.20105 0)
(238.638 -0.859153 0)
(273.968 -0.635809 0)
(295.26 -0.968059 0)
(288.701 -1.2004 0)
(220.618 -1.31579 0)
(83.4002 -1.5781 0)
(40.2306 -2.42829 0)
(38.5435 -2.95312 0)
(51.5419 -3.38833 0)
(72.5621 -3.41415 0)
(88.5232 -2.69576 0)
(97.6575 -1.7699 0)
(104.284 -0.414433 0)
(112.131 0.963369 0)
(121.388 1.6261 0)
(130.455 1.14055 0)
(136.969 0.501524 0)
(139.68 -0.892927 0)
(141.514 -1.80739 0)
(144.869 -1.17209 0)
(150.548 -0.135326 0)
(159.932 1.3159 0)
(176.097 2.96537 0)
(200.802 4.36091 0)
(232.127 5.11448 0)
(252.608 5.50935 0)
(255.846 5.4988 0)
(229.771 5.3365 0)
(147.316 4.42028 0)
(78.659 3.10275 0)
(71.9241 2.75744 0)
(77.9706 2.45237 0)
(91.128 2.30486 0)
(105.414 2.58675 0)
(113.55 2.67736 0)
(119.098 2.14315 0)
(126.444 1.69792 0)
(136.331 0.556672 0)
(147.984 -0.571104 0)
(159.883 -1.70111 0)
(171.019 -2.52385 0)
(179.798 -3.42732 0)
(184.606 -4.1696 0)
(183.783 -4.43973 0)
(178.042 -3.99884 0)
(172.626 -3.1748 0)
(175.573 -2.34375 0)
(192.738 -1.07482 0)
(218.284 0.353135 0)
(238.924 0.855267 0)
(241.293 1.17012 0)
(209.266 1.4976 0)
(130.518 1.19594 0)
(88.3384 0.939145 0)
(73.9616 0.707406 0)
(78.3319 0.621843 0)
(95.2538 0.701988 0)
(115.474 0.719484 0)
(131.196 0.879364 0)
(141.608 0.862562 0)
(148.245 0.755155 0)
(147.797 0.570291 0)
(148.521 0.178502 0)
(156.341 -0.200669 0)
(170.825 0.0178891 0)
(183.88 0.157649 0)
(196.403 0.0195663 0)
(205.666 -0.675312 0)
(214.793 -1.31954 0)
(218.586 -2.27498 0)
(220.441 -3.59068 0)
(219.77 -3.74649 0)
(213.103 -3.1597 0)
(201.54 -2.68567 0)
(160.944 -2.57039 0)
(102.364 -1.17432 0)
(81.5098 -0.964149 0)
(82.8792 -0.835112 0)
(81.5504 -1.4348 0)
(88.0988 -1.67977 0)
(97.4868 -1.51495 0)
(104.696 -0.466236 0)
(110.718 0.786006 0)
(119.328 1.67834 0)
(129.265 2.24702 0)
(140.591 2.38313 0)
(155.025 2.71284 0)
(169.771 2.50895 0)
(184.545 2.25826 0)
(194.269 2.11224 0)
(197.541 1.85119 0)
(198.909 1.49364 0)
(202.86 1.41085 0)
(211.85 1.19595 0)
(225.213 0.877597 0)
(235.237 0.598906 0)
(237.066 0.0236782 0)
(223.937 -0.81334 0)
(179.975 -1.34228 0)
(120.892 -1.07553 0)
(103.963 -0.382499 0)
(106.831 0.122049 0)
(118.138 0.659609 0)
(134.962 1.2741 0)
(150.054 1.22234 0)
(157.178 1.10074 0)
(158.045 0.897492 0)
(154.277 1.02842 0)
(150.18 1.26871 0)
(150.814 1.44015 0)
(158.83 1.6158 0)
(175.564 1.68885 0)
(198.335 1.30069 0)
(218.648 0.409439 0)
(229.241 -1.06497 0)
(231.218 -2.3979 0)
(231.1 -3.53967 0)
(234.427 -4.03179 0)
(241.36 -4.56567 0)
(249.819 -4.88095 0)
(255.004 -5.24428 0)
(247.008 -5.3304 0)
(205.402 -4.92918 0)
(150.026 -4.55199 0)
(134.743 -4.33909 0)
(133.146 -4.15556 0)
(137.184 -3.91269 0)
(149.374 -3.69176 0)
(163.649 -3.25928 0)
(169.537 -3.12647 0)
(169.279 -3.14498 0)
(167.041 -3.12837 0)
(165.42 -3.24839 0)
(166.275 -3.59502 0)
(169.915 -4.0259 0)
(177.209 -4.52518 0)
(187.843 -4.58447 0)
(199.808 -5.15298 0)
(210.272 -5.399 0)
(216.445 -5.51471 0)
(217.97 -5.2915 0)
(218.887 -4.98458 0)
(220.14 -4.10597 0)
(222.06 -3.0066 0)
(224.531 -1.79834 0)
(222.771 -0.902061 0)
(208.098 -0.318104 0)
(167.483 -0.484159 0)
(128.515 -1.1361 0)
(114.767 -1.51855 0)
(110.849 -1.69827 0)
(116.495 -1.7346 0)
(128.831 -1.66328 0)
(140.974 -1.5259 0)
(146.369 -1.47495 0)
(148.141 -0.996997 0)
(148.774 -0.0192744 0)
(150.563 0.679699 0)
(154.246 1.1378 0)
(161.012 1.18352 0)
(174.68 1.07603 0)
(195.746 0.889015 0)
(216.527 0.923571 0)
(227.658 0.495312 0)
(233.975 0.0602394 0)
(236.928 -1.13586 0)
(238.853 -2.36042 0)
(239.093 -3.84893 0)
(237.747 -4.87682 0)
(234.83 -5.23947 0)
(226.354 -5.09607 0)
(202.286 -5.07954 0)
(154.093 -5.24935 0)
(126.846 -4.97305 0)
(124.802 -5.14768 0)
(129.773 -5.13898 0)
(139.12 -5.05728 0)
(150.265 -4.80079 0)
(157.52 -4.68487 0)
(160.45 -4.48163 0)
(160.441 -4.14255 0)
(159.616 -3.45274 0)
(159.819 -2.87478 0)
(160.577 -2.32089 0)
(164.16 -0.67485 0)
(170.412 0.588755 0)
(183.83 0.98171 0)
(203.727 0.850599 0)
(217.992 0.476897 0)
(222.732 -0.0102598 0)
(223.49 -0.705614 0)
(223.48 -1.43004 0)
(224.39 -2.38948 0)
(228.46 -2.94749 0)
(235.167 -3.60669 0)
(239.549 -4.0508 0)
(239.81 -4.36769 0)
(232.165 -4.46558 0)
(201.678 -4.32955 0)
(156.044 -3.94157 0)
(141.437 -3.33138 0)
(140.159 -2.78197 0)
(142.456 -1.94633 0)
(151.098 -0.831192 0)
(164.683 0.428224 0)
(173.084 1.44977 0)
(172.455 2.14173 0)
(168.957 2.58207 0)
(166.144 3.10357 0)
(165.352 3.5186 0)
(168.378 3.75551 0)
(178.56 3.54399 0)
(197.686 2.88139 0)
(220.527 1.89512 0)
(233.818 0.0172884 0)
(234.175 -2.54916 0)
(230.596 -5.08384 0)
(229.187 -7.41912 0)
(230.18 -8.64437 0)
(231.346 -9.9811 0)
(233.019 -11.0228 0)
(213.102 -11.5758 0)
(-2323.08 0.41766 0)
(-749.611 -8.83848 0)
(-256.977 -9.47019 0)
(-285.644 -11.8017 0)
(-256.979 -7.88578 0)
(-186.782 -3.96783 0)
(-70.348 -0.249135 0)
(60.1063 0.966429 0)
(189.35 3.29927 0)
(297.201 2.96381 0)
(334.17 -1.51134 0)
(311.864 2.95334 0)
(300.145 9.09751 0)
(313.916 13.8429 0)
(343.68 10.782 0)
(349.248 6.52336 0)
(301.921 5.07567 0)
(58.529 5.7549 0)
(-139.731 7.099 0)
(-134.951 6.46494 0)
(-111.51 3.32839 0)
(-80.4936 -0.960534 0)
(-55.1799 -3.92529 0)
(-32.9998 -1.73157 0)
(-7.32503 0.200092 0)
(25.5192 0.309488 0)
(63.9517 1.7332 0)
(105.762 1.63489 0)
(149.259 0.850721 0)
(191.049 1.39523 0)
(224.214 -0.171891 0)
(240.707 -9.82054 0)
(248.321 -19.4191 0)
(268.09 -26.9589 0)
(303.637 -20.8869 0)
(322.568 -6.3305 0)
(334.641 -1.94507 0)
(274.028 -0.956272 0)
(53.9434 -0.1317 0)
(-59.7483 2.40201 0)
(-63.1968 4.29046 0)
(-43.0751 5.14523 0)
(-9.62392 4.56418 0)
(21.0717 3.28178 0)
(46.5349 2.12666 0)
(65.6818 2.34111 0)
(75.2011 3.45756 0)
(79.0268 5.05083 0)
(85.7838 8.52041 0)
(103.828 9.60162 0)
(132.065 11.7749 0)
(163.736 12.3221 0)
(195.257 10.7025 0)
(223.424 8.36376 0)
(240.265 1.14014 0)
(252.073 -6.00179 0)
(275.476 -11.1342 0)
(310.149 -10.4931 0)
(314.586 -6.75784 0)
(305.1 -7.06123 0)
(195.858 -7.77507 0)
(47.4293 -7.83916 0)
(26.377 -7.22511 0)
(45.044 -7.48433 0)
(64.1984 -11.7121 0)
(72.8149 -16.7622 0)
(69.1068 -19.1459 0)
(63.545 -18.0069 0)
(69.9111 -13.922 0)
(87.4884 -10.4472 0)
(111.668 -8.36805 0)
(139.319 -7.16279 0)
(167.374 -6.07454 0)
(190.213 -5.22961 0)
(200.546 -3.88083 0)
(200.101 -2.26287 0)
(199.132 -0.0763971 0)
(210.005 1.63098 0)
(238.32 2.4451 0)
(272.842 1.92605 0)
(291.764 -1.06447 0)
(284.412 -4.10232 0)
(217.354 -6.95566 0)
(82.5511 -9.19566 0)
(39.2485 -10.7533 0)
(39.7256 -10.1972 0)
(53.6811 -9.50961 0)
(75.5756 -7.92516 0)
(92.9148 -4.54108 0)
(102.808 -0.165348 0)
(107.953 3.60843 0)
(112.001 4.5628 0)
(117.893 2.45352 0)
(125.26 -2.10256 0)
(132.127 -6.50518 0)
(138.854 -7.96397 0)
(145.454 -6.47707 0)
(151.818 -1.70263 0)
(156.643 4.89695 0)
(163.669 9.6559 0)
(177.493 12.8071 0)
(201.4 14.2442 0)
(232.677 14.703 0)
(251.451 14.3802 0)
(253.251 12.9845 0)
(226.434 11.7854 0)
(142.736 9.25309 0)
(77.2321 6.79637 0)
(72.6348 7.57002 0)
(79.3133 7.70003 0)
(91.9917 8.53852 0)
(104.891 9.58561 0)
(111.796 9.73063 0)
(115.697 7.32149 0)
(122.244 4.55588 0)
(132.208 0.663104 0)
(144.508 -3.08512 0)
(157.284 -6.62739 0)
(169.191 -9.36959 0)
(178.837 -11.6867 0)
(184.773 -13.3984 0)
(185.797 -13.074 0)
(181.469 -10.3829 0)
(176.353 -6.21093 0)
(179.131 -2.47502 0)
(196.198 1.12691 0)
(220.696 4.32017 0)
(239.527 4.84258 0)
(240.689 4.65114 0)
(207.718 3.94516 0)
(128.159 2.2647 0)
(87.0735 0.389715 0)
(73.6434 0.0301623 0)
(78.7609 0.516991 0)
(96.259 1.64368 0)
(116.115 2.88501 0)
(131.362 3.62609 0)
(141.172 3.59442 0)
(147.464 3.20355 0)
(147.103 2.4569 0)
(148.361 1.56305 0)
(156.709 1.016 0)
(171.317 1.51525 0)
(184.039 1.72411 0)
(195.458 1.07834 0)
(202.909 -0.345607 0)
(209.924 -4.46304 0)
(214.31 -8.83153 0)
(219.311 -11.5914 0)
(221.751 -9.61963 0)
(216.683 -6.5001 0)
(206.276 -3.20198 0)
(165.26 -1.22286 0)
(103.217 0.929078 0)
(81.7758 -0.34752 0)
(82.1244 -0.48397 0)
(82.0034 -0.493532 0)
(90.0081 0.518235 0)
(101.227 2.40267 0)
(107.85 6.38607 0)
(112.613 9.67655 0)
(120.227 11.3732 0)
(129.366 11.7456 0)
(140.051 11.3359 0)
(153.093 11.2029 0)
(167.833 10.0337 0)
(182.866 8.72322 0)
(193.298 7.83911 0)
(197.392 7.07739 0)
(198.827 6.35586 0)
(202.418 5.59286 0)
(210.896 4.22469 0)
(223.958 2.27643 0)
(233.165 0.506092 0)
(234.699 -1.39688 0)
(222.197 -2.90461 0)
(178.785 -4.01057 0)
(120.418 -4.03424 0)
(104.734 -3.11907 0)
(107.656 -2.61723 0)
(118.703 -2.27801 0)
(135.31 -1.44229 0)
(150.261 -1.60385 0)
(157.45 -1.90884 0)
(158.654 -1.83795 0)
(155.664 -1.08538 0)
(152.445 0.366613 0)
(153.446 2.22509 0)
(161.299 3.86326 0)
(177.139 4.76339 0)
(198.548 4.93567 0)
(217.171 4.42413 0)
(226.352 2.71427 0)
(227.059 -0.646079 0)
(226.426 -4.28569 0)
(230.453 -7.10756 0)
(238.356 -9.46864 0)
(245.871 -12.2129 0)
(251.162 -15.4012 0)
(244.28 -18.5137 0)
(206.159 -19.4866 0)
(151.271 -18.1182 0)
(135.14 -17.3569 0)
(133.953 -16.8219 0)
(138.62 -15.9885 0)
(151.497 -14.867 0)
(166.086 -13.3618 0)
(171.596 -12.1585 0)
(171.052 -11.333 0)
(168.432 -10.036 0)
(165.474 -9.23691 0)
(164.925 -9.58593 0)
(167.657 -10.4704 0)
(174.229 -11.9627 0)
(184.699 -13.4028 0)
(196.911 -16.0082 0)
(207.704 -17.8605 0)
(214.467 -19.1765 0)
(217.646 -19.9389 0)
(219.224 -20.2537 0)
(222.029 -19.5789 0)
(224.379 -17.6539 0)
(227.035 -15.2631 0)
(225.173 -12.9919 0)
(209.974 -10.3155 0)
(168.589 -8.65605 0)
(129.317 -8.18736 0)
(115.8 -8.05612 0)
(111.85 -7.33625 0)
(116.978 -6.79984 0)
(129.032 -6.34877 0)
(141.4 -5.74974 0)
(147.158 -5.58983 0)
(149.471 -4.807 0)
(150.924 -3.14754 0)
(153.669 -1.5039 0)
(158.06 0.710448 0)
(164.465 3.01443 0)
(176.628 4.51438 0)
(196.234 4.89865 0)
(216.927 4.28462 0)
(228.206 3.19218 0)
(234.365 2.40235 0)
(236.641 0.937668 0)
(238.077 -0.404863 0)
(237.65 -2.26873 0)
(235.926 -3.64433 0)
(232.579 -4.21402 0)
(225.076 -4.72458 0)
(202.745 -4.75837 0)
(156.247 -2.83481 0)
(127.375 -0.574864 0)
(124.173 -0.823066 0)
(128.276 -1.53861 0)
(136.74 -3.14479 0)
(148.346 -5.0043 0)
(157.615 -6.55149 0)
(161.792 -6.90145 0)
(162.501 -6.7203 0)
(162.077 -5.50181 0)
(162.443 -3.55289 0)
(163.227 -1.22396 0)
(166.709 1.2304 0)
(172.516 3.16367 0)
(185.23 4.61764 0)
(204.221 5.36647 0)
(218.209 5.32338 0)
(222.947 5.37632 0)
(223.771 5.58259 0)
(222.974 5.70809 0)
(223.359 5.17761 0)
(226.606 4.20419 0)
(233.109 2.33589 0)
(236.966 0.435641 0)
(236.465 -1.90138 0)
(228.546 -4.82852 0)
(198.758 -7.3571 0)
(154.679 -8.58759 0)
(140.801 -8.63983 0)
(139.598 -8.46382 0)
(142.971 -7.8113 0)
(153.352 -6.14588 0)
(168.145 -3.72944 0)
(176.821 -1.20102 0)
(176.342 1.0955 0)
(172.927 3.89571 0)
(170.463 6.89819 0)
(169.999 9.32759 0)
(172.834 11.3662 0)
(181.694 12.4164 0)
(199.093 12.1393 0)
(220.57 10.6973 0)
(231.88 7.63636 0)
(230.43 4.67734 0)
(223.866 0.582234 0)
(219.579 -6.43077 0)
(220.59 -14.0685 0)
(224.546 -20.8279 0)
(229.271 -25.1815 0)
(211.871 -27.5713 0)
(-2320.65 0.122239 0)
(-764.114 59.2003 0)
(-267.714 -10.839 0)
(-289.244 -13.6959 0)
(-251.236 -9.08125 0)
(-180.792 -3.52345 0)
(-66.4614 -0.792011 0)
(59.345 0.825163 0)
(184.29 2.45754 0)
(292.02 0.569487 0)
(334.244 -4.04629 0)
(321.354 2.495 0)
(310.555 12.3138 0)
(320.373 20.0663 0)
(344.503 16.0704 0)
(350.177 11.731 0)
(304.326 10.2008 0)
(63.1701 9.76965 0)
(-138.589 10.8373 0)
(-136.877 9.60143 0)
(-117.468 4.40543 0)
(-88.3453 -2.34881 0)
(-61.9303 -6.56376 0)
(-36.1026 -3.6094 0)
(-6.55381 -1.91624 0)
(27.9702 -1.54033 0)
(66.1731 0.00485817 0)
(107.081 0.0421863 0)
(148.741 -1.25702 0)
(186.077 -1.47884 0)
(212.068 -6.01638 0)
(223.14 -20.4363 0)
(234.878 -29.9982 0)
(264.708 -34.1824 0)
(312.624 -25.2353 0)
(337.035 -9.52724 0)
(344.19 -5.02437 0)
(279.66 -1.44454 0)
(55.3735 -0.861657 0)
(-55.5553 2.22059 0)
(-60.7342 5.30613 0)
(-41.8451 6.8705 0)
(-10.5853 6.49138 0)
(18.4341 4.61534 0)
(42.9799 2.92213 0)
(62.6512 3.11365 0)
(74.9602 5.13804 0)
(82.4716 8.26355 0)
(90.8517 13.1184 0)
(107.557 15.2645 0)
(132.902 18.1979 0)
(162.442 18.3911 0)
(190.943 15.922 0)
(215.051 10.5264 0)
(229.217 -0.728778 0)
(242.621 -9.08346 0)
(270.704 -12.9128 0)
(309.201 -10.7107 0)
(314.403 -6.23703 0)
(304.778 -6.88005 0)
(194.831 -8.14429 0)
(46.5571 -8.93004 0)
(26.0842 -9.23056 0)
(38.9841 -10.2001 0)
(56.3657 -15.73 0)
(67.933 -21.6966 0)
(68.7267 -24.3955 0)
(68.1716 -22.2228 0)
(75.091 -17.3479 0)
(91.7067 -12.4429 0)
(114.912 -10.5342 0)
(141.252 -9.25315 0)
(167.962 -7.71415 0)
(190.133 -6.71141 0)
(201.531 -4.86884 0)
(202.78 -3.16992 0)
(202.281 -0.351393 0)
(211.885 1.81524 0)
(237.57 2.18759 0)
(270.314 0.195112 0)
(285.649 -4.11959 0)
(276.859 -8.16925 0)
(211.678 -12.267 0)
(80.8064 -13.8308 0)
(37.5611 -13.9608 0)
(41.0915 -12.9457 0)
(56.3966 -11.8521 0)
(80.2909 -9.56162 0)
(100.093 -4.67404 0)
(111.496 0.989026 0)
(114.342 4.30415 0)
(112.898 4.45544 0)
(112.884 1.06491 0)
(116.925 -5.23801 0)
(126.494 -10.1903 0)
(139.799 -10.4746 0)
(152.518 -7.77387 0)
(162.351 -1.27858 0)
(168.296 6.39362 0)
(172.377 14.5212 0)
(183.798 19.3729 0)
(206.073 20.4487 0)
(236.778 21.3544 0)
(252.519 20.0312 0)
(251.413 18.4327 0)
(224.195 16.8028 0)
(139.157 13.9301 0)
(76.8272 11.7047 0)
(73.5101 11.9067 0)
(80.8455 11.9454 0)
(92.6232 13.2259 0)
(103.782 14.2499 0)
(109.141 14.3116 0)
(111.192 11.1805 0)
(116.459 7.08018 0)
(125.688 2.38301 0)
(137.753 -2.82161 0)
(151.421 -7.80011 0)
(164.922 -11.9827 0)
(176.305 -14.608 0)
(183.667 -16.8425 0)
(186.849 -16.6997 0)
(185.128 -13.7397 0)
(181.007 -8.21417 0)
(184.501 -2.92869 0)
(201.158 2.31758 0)
(225.128 6.72454 0)
(240.633 7.70411 0)
(240.89 7.6655 0)
(206.102 6.64323 0)
(125.201 3.74824 0)
(85.4271 1.27606 0)
(73.8913 0.794768 0)
(79.8113 1.42299 0)
(97.3762 2.89191 0)
(116.508 4.46697 0)
(130.626 5.30304 0)
(139.419 4.92553 0)
(145.149 4.1306 0)
(145.191 2.8472 0)
(147.683 1.85604 0)
(157.111 1.24289 0)
(171.607 1.51794 0)
(183.795 1.28107 0)
(192.811 -0.325585 0)
(198.673 -3.89998 0)
(202.594 -9.81431 0)
(208.519 -14.1433 0)
(218.019 -16.3738 0)
(224.135 -13.4222 0)
(221.398 -9.71529 0)
(211.745 -5.93763 0)
(170.292 -3.16971 0)
(103.677 -0.649548 0)
(81.9824 -1.94292 0)
(81.0233 -2.4153 0)
(83.498 -1.58522 0)
(94.0035 -0.112181 0)
(108.224 2.03268 0)
(115.747 7.55038 0)
(118.663 12.8197 0)
(122.924 16.1747 0)
(130.281 16.5956 0)
(139.44 16.0092 0)
(150.966 15.4943 0)
(165.456 14.3412 0)
(181.055 12.6795 0)
(192.445 11.3523 0)
(197.357 10.5149 0)
(198.883 9.80221 0)
(201.586 8.5468 0)
(209.229 6.52091 0)
(222.174 3.74631 0)
(229.781 0.512925 0)
(231.165 -1.81249 0)
(219.88 -3.70973 0)
(177.436 -4.9532 0)
(120.964 -4.79236 0)
(107.035 -3.17036 0)
(109.625 -2.91839 0)
(119.248 -2.86511 0)
(135.552 -1.96088 0)
(150.484 -2.31009 0)
(157.706 -2.89429 0)
(159.255 -2.83499 0)
(157.966 -1.43268 0)
(155.347 0.661154 0)
(156.554 2.79512 0)
(163.668 4.69218 0)
(177.763 5.42414 0)
(196.988 5.44423 0)
(213.573 4.50209 0)
(221.285 2.20002 0)
(221.067 -1.4553 0)
(220.18 -5.75149 0)
(224.406 -9.66775 0)
(234.181 -12.9973 0)
(240.931 -16.464 0)
(246.002 -19.9202 0)
(240.566 -23.3222 0)
(207.974 -24.5584 0)
(153.894 -23.3497 0)
(135.07 -22.5572 0)
(133.862 -22.2013 0)
(138.738 -21.6423 0)
(151.818 -20.7215 0)
(166.403 -19.7519 0)
(171.92 -18.9839 0)
(171.869 -18.0197 0)
(168.991 -16.632 0)
(165.182 -15.6409 0)
(163.41 -15.5309 0)
(165.231 -16.4574 0)
(170.894 -18.0551 0)
(180.986 -19.594 0)
(194.035 -22.4822 0)
(205.955 -24.8113 0)
(213.662 -26.3533 0)
(218.303 -27.3722 0)
(220.9 -28.0688 0)
(225.04 -28.1434 0)
(229.144 -26.8596 0)
(231.414 -25.2071 0)
(229.96 -23.2208 0)
(214.915 -20.3914 0)
(172.06 -17.4708 0)
(130.082 -14.75 0)
(117.391 -13.0834 0)
(114.22 -10.8337 0)
(118.987 -9.1033 0)
(130.879 -7.8109 0)
(143.49 -6.23547 0)
(149.519 -5.4655 0)
(152.592 -4.06315 0)
(154.728 -1.73705 0)
(158.349 0.426588 0)
(163.016 2.99679 0)
(169.2 5.68136 0)
(179.371 7.26411 0)
(195.611 7.30436 0)
(214.867 6.30167 0)
(227.183 3.96465 0)
(233.359 1.64124 0)
(235.71 -1.19774 0)
(237.27 -4.15544 0)
(237.365 -7.45784 0)
(236.379 -10.1457 0)
(233.872 -11.7118 0)
(226.822 -12.503 0)
(205.716 -11.856 0)
(161.483 -8.72879 0)
(129.786 -5.33538 0)
(124.882 -4.96381 0)
(127.828 -5.68944 0)
(135.241 -7.20833 0)
(146.514 -8.30595 0)
(157.239 -8.95313 0)
(162.243 -8.99242 0)
(164.276 -8.36714 0)
(164.77 -6.99748 0)
(165.206 -4.65982 0)
(167.264 -2.32494 0)
(170.227 0.468556 0)
(176.009 2.4707 0)
(187.635 3.72419 0)
(205.142 4.49612 0)
(218.381 4.68904 0)
(223.664 4.89995 0)
(224.352 5.24897 0)
(222.713 5.50665 0)
(221.833 5.04589 0)
(224.406 3.99689 0)
(230.807 1.94705 0)
(234.478 -0.462229 0)
(233.263 -2.86605 0)
(225.022 -5.88858 0)
(196.262 -8.39371 0)
(154.828 -9.73251 0)
(142.17 -9.79722 0)
(141.107 -9.68234 0)
(145.838 -8.97388 0)
(158.063 -6.78497 0)
(173.622 -3.6866 0)
(182.163 -0.464779 0)
(181.549 2.62362 0)
(178.075 5.91986 0)
(175.59 9.31125 0)
(174.665 12.3408 0)
(176.69 14.4071 0)
(183.695 15.5008 0)
(197.338 14.6631 0)
(215.984 11.1872 0)
(226.296 4.93617 0)
(224.229 -1.09665 0)
(216.083 -7.9575 0)
(210.23 -16.2996 0)
(210.94 -23.5327 0)
(216.722 -29.7721 0)
(226.256 -33.7227 0)
(211.931 -35.7778 0)
(-2323.67 1.07414 0)
(-1078.16 0.941842 0)
(-269.417 -21.1907 0)
(-283.144 -20.8916 0)
(-241.409 -10.082 0)
(-174.1 -1.75731 0)
(-63.5608 0.359864 0)
(56.4099 0.850402 0)
(176.814 0.0277398 0)
(284.071 -1.77115 0)
(333.775 -7.12704 0)
(332.938 -0.0640906 0)
(324.278 9.54999 0)
(329.7 22.3474 0)
(344.748 20.8509 0)
(351.083 18.3985 0)
(304.742 16.2383 0)
(63.3636 14.5785 0)
(-139.032 14.0166 0)
(-141.8 11.6483 0)
(-127.059 4.56804 0)
(-99.4178 -3.62847 0)
(-70.4811 -9.19076 0)
(-39.1267 -7.65553 0)
(-4.76827 -6.0998 0)
(31.7301 -5.29407 0)
(69.6668 -3.40486 0)
(108.768 -4.14932 0)
(146.352 -6.37459 0)
(176.343 -8.52137 0)
(195.373 -16.5979 0)
(207.343 -29.422 0)
(227.683 -35.7194 0)
(267.045 -34.0656 0)
(318.37 -21.1555 0)
(351.525 -9.63838 0)
(356.256 -4.66484 0)
(287.048 -1.33309 0)
(58.1674 -0.205985 0)
(-49.7627 3.84943 0)
(-57.8167 7.03302 0)
(-40.8931 8.33523 0)
(-11.9822 7.33179 0)
(15.3102 5.81029 0)
(39.0957 4.81474 0)
(59.731 5.70213 0)
(75.3581 7.95491 0)
(86.6255 11.1384 0)
(97.2881 16.2543 0)
(112.247 19.6794 0)
(133.359 22.6809 0)
(158.683 22.5352 0)
(183.32 19.1304 0)
(203.425 11.813 0)
(216.699 -0.0275991 0)
(234.326 -7.40014 0)
(268.204 -9.12642 0)
(306.888 -5.50122 0)
(315.443 -2.63745 0)
(303.801 -4.05778 0)
(192.753 -5.92042 0)
(44.247 -6.72198 0)
(24.5638 -7.86201 0)
(31.6607 -9.78964 0)
(48.0647 -15.2915 0)
(62.4739 -21.1287 0)
(69.2434 -23.7146 0)
(74.0805 -21.2147 0)
(81.9515 -16.5643 0)
(96.8064 -11.6639 0)
(118.066 -9.84077 0)
(142.689 -8.38229 0)
(168.022 -6.80163 0)
(189.637 -6.24174 0)
(202.533 -4.52335 0)
(205.802 -3.29789 0)
(205.669 -0.720965 0)
(213.213 0.608267 0)
(235.721 -0.14555 0)
(266.633 -4.03315 0)
(277.551 -9.4982 0)
(268.689 -13.8904 0)
(207.654 -17.0561 0)
(81.1468 -16.712 0)
(38.983 -14.6827 0)
(43.5484 -13.048 0)
(60.5058 -11.6124 0)
(86.0542 -8.94403 0)
(107.83 -4.38128 0)
(120.207 0.0154616 0)
(119.821 1.62767 0)
(113.034 0.901214 0)
(107.121 -2.20257 0)
(109.701 -6.87592 0)
(123.405 -9.36553 0)
(142.066 -9.67967 0)
(159.541 -7.61752 0)
(173.321 -3.06492 0)
(181.824 3.73821 0)
(184.653 14.4341 0)
(193.497 22.3144 0)
(212.094 26.0913 0)
(240.667 26.7301 0)
(252.104 24.3523 0)
(249.293 23.1514 0)
(222.693 21.514 0)
(136.747 18.6299 0)
(76.4756 16.4927 0)
(73.8832 15.6376 0)
(82.9355 15.0006 0)
(94.1228 16.3524 0)
(103.579 17.283 0)
(106.357 17.1914 0)
(106.288 14.5194 0)
(109.848 9.42113 0)
(118.103 3.88294 0)
(129.981 -2.02255 0)
(144.805 -6.93249 0)
(160.127 -11.0698 0)
(173.374 -13.3402 0)
(182.144 -15.4551 0)
(187.51 -15.6667 0)
(188.785 -13.0686 0)
(186.951 -7.79064 0)
(191.153 -2.30884 0)
(207.334 3.76288 0)
(230.019 9.50146 0)
(240.777 10.9119 0)
(240.368 10.7838 0)
(203.548 9.62608 0)
(121.589 5.92182 0)
(83.7297 3.60937 0)
(74.4733 2.87446 0)
(81.0025 3.27545 0)
(98.3644 4.37197 0)
(116.726 5.86732 0)
(129.507 6.52678 0)
(137.278 5.95093 0)
(142.351 4.86935 0)
(143.124 3.07719 0)
(147.026 1.83344 0)
(157.036 0.942113 0)
(170.788 0.301284 0)
(182.055 -0.766974 0)
(188.361 -4.08967 0)
(192.069 -9.02301 0)
(194.832 -14.7387 0)
(202.943 -17.5257 0)
(217.132 -18.6769 0)
(227.104 -16.7129 0)
(227.526 -13.2312 0)
(218.259 -9.87492 0)
(175.731 -6.91359 0)
(106.001 -3.96337 0)
(81.398 -3.42106 0)
(79.4538 -3.89038 0)
(85.2455 -2.80472 0)
(99.0783 -1.02766 0)
(115.845 1.43477 0)
(124.987 6.30336 0)
(127.049 12.2681 0)
(128.031 16.9775 0)
(131.856 18.8916 0)
(138.696 18.8902 0)
(149.412 18.3162 0)
(163.875 17.9151 0)
(180.097 16.2807 0)
(192.336 14.3076 0)
(197.852 13.0361 0)
(199.032 11.8132 0)
(200.554 10.456 0)
(207.071 8.82335 0)
(219.725 5.62275 0)
(226.09 1.94004 0)
(227.557 -1.22884 0)
(217.679 -3.46572 0)
(176.994 -4.77691 0)
(122.533 -3.95619 0)
(109.298 -2.21547 0)
(110.989 -2.51748 0)
(119.033 -2.75786 0)
(135.209 -2.13024 0)
(150.43 -2.70392 0)
(157.591 -3.52004 0)
(160.103 -3.52162 0)
(160.299 -2.31655 0)
(158.789 -0.0885708 0)
(160.106 2.12966 0)
(165.933 4.11702 0)
(178.028 4.78901 0)
(195.395 4.43149 0)
(209.738 3.36628 0)
(215.23 0.542525 0)
(214.771 -2.94802 0)
(213.45 -6.74283 0)
(216.958 -9.96044 0)
(227.442 -13.0089 0)
(235.777 -16.5458 0)
(240.146 -19.6054 0)
(236.117 -22.217 0)
(208.262 -23.6742 0)
(155.686 -23.5526 0)
(134.536 -23.441 0)
(133.814 -23.5334 0)
(138.555 -23.5157 0)
(151.55 -23.3535 0)
(166.168 -23.4584 0)
(172.093 -23.5235 0)
(172.725 -23.04 0)
(169.987 -22.5209 0)
(165.595 -21.6009 0)
(162.683 -21.0758 0)
(162.85 -21.5079 0)
(167.021 -22.4688 0)
(176.304 -23.7368 0)
(189.721 -26.0845 0)
(202.514 -28.6001 0)
(210.896 -30.3746 0)
(215.784 -32.1269 0)
(219.047 -33.3862 0)
(224.1 -34.235 0)
(229.494 -33.9591 0)
(231.469 -33.5296 0)
(231.024 -32.2131 0)
(218.604 -30.1987 0)
(177.705 -27.3938 0)
(133.425 -23.8537 0)
(120.817 -20.133 0)
(118.704 -16.0412 0)
(123.322 -12.5444 0)
(134.877 -9.10956 0)
(146.962 -4.97958 0)
(152.713 -2.44353 0)
(155.448 0.501738 0)
(157.912 3.73241 0)
(162.036 6.25279 0)
(167.2 8.07825 0)
(173.272 9.41928 0)
(182.081 10.3376 0)
(196.045 10.0043 0)
(213.754 9.09145 0)
(224.729 6.25124 0)
(229.463 2.35618 0)
(231.018 -2.65724 0)
(232.313 -8.2183 0)
(232.551 -13.7074 0)
(232.805 -18.3311 0)
(231.572 -21.1463 0)
(226.764 -22.3074 0)
(209.372 -21.0334 0)
(168.741 -16.3811 0)
(133.302 -12.2013 0)
(126.027 -10.4913 0)
(127.617 -9.92224 0)
(133.987 -9.58358 0)
(145.794 -9.148 0)
(157.991 -8.44938 0)
(163.726 -7.60032 0)
(166.38 -6.49659 0)
(167.488 -5.17521 0)
(168.067 -3.2738 0)
(170.209 -1.54341 0)
(172.481 -0.212166 0)
(177.722 0.291454 0)
(188.754 0.796912 0)
(205.44 1.18797 0)
(217.809 1.54743 0)
(223.368 1.83089 0)
(223.859 2.03527 0)
(221.679 2.14987 0)
(220.25 2.12994 0)
(222.654 2.12497 0)
(228.7 1.7328 0)
(232.493 0.636589 0)
(230.564 -0.619399 0)
(221.861 -2.48778 0)
(193.307 -4.35776 0)
(154.219 -5.72605 0)
(142.37 -6.0353 0)
(141.401 -6.19937 0)
(147.688 -5.60945 0)
(162.037 -3.55729 0)
(178.265 -0.250895 0)
(186.484 2.05662 0)
(186.333 4.41141 0)
(183.365 7.74445 0)
(180.248 11.2982 0)
(177.992 13.8983 0)
(178.137 14.9125 0)
(182.262 13.9763 0)
(192.064 10.7255 0)
(206.843 5.16172 0)
(215.687 -3.05588 0)
(213.283 -10.0223 0)
(205.639 -16.6018 0)
(200.888 -23.3936 0)
(202.022 -27.8506 0)
(209.242 -31.7427 0)
(223.82 -33.9006 0)
(212.854 -35.035 0)
(-2319.2 1.18559 0)
(-689.519 16.076 0)
(-258.086 -16.1226 0)
(-267.753 -19.0152 0)
(-225.951 -9.91465 0)
(-166.634 -0.930864 0)
(-61.4626 1.16506 0)
(52.3905 1.63075 0)
(168.663 -1.78032 0)
(275.377 -3.9461 0)
(333.435 -8.57686 0)
(343.018 -3.89262 0)
(340.463 4.21776 0)
(344.29 19.1483 0)
(347.808 25.3309 0)
(352.079 24.8349 0)
(302.314 24.4292 0)
(56.2478 19.539 0)
(-141.544 16.2207 0)
(-150.769 12.3707 0)
(-139.854 3.62902 0)
(-113.011 -5.55584 0)
(-79.9941 -11.8608 0)
(-42.4998 -11.5091 0)
(-3.10659 -10.3721 0)
(35.7756 -9.04078 0)
(73.3822 -7.94693 0)
(109.271 -9.71306 0)
(140.349 -13.9274 0)
(163.899 -18.6851 0)
(179.932 -26.892 0)
(197.571 -32.6581 0)
(227.979 -35.501 0)
(275.574 -29.2153 0)
(325.386 -12.6267 0)
(360.655 -5.51495 0)
(365.694 -1.83984 0)
(292.718 0.458682 0)
(59.2335 0.946136 0)
(-44.6945 3.35802 0)
(-54.8625 5.98604 0)
(-39.4702 6.95423 0)
(-12.8955 5.99767 0)
(12.4796 4.75387 0)
(35.2533 4.83761 0)
(56.4599 6.79926 0)
(75.1306 9.73489 0)
(90.7855 12.8395 0)
(104.263 17.0726 0)
(118.028 20.5948 0)
(134.265 23.2354 0)
(153.459 22.7847 0)
(173.18 18.7208 0)
(190.42 10.4699 0)
(205.739 1.20997 0)
(228.68 -3.20249 0)
(268.353 -3.20217 0)
(304.288 1.76587 0)
(316.92 3.1919 0)
(302.342 1.5778 0)
(190.089 -0.562797 0)
(40.9643 -2.06037 0)
(21.0184 -4.06829 0)
(23.8291 -6.55238 0)
(40.4937 -11.1054 0)
(58.9817 -16.5103 0)
(71.1405 -18.0234 0)
(79.2151 -15.5533 0)
(87.8718 -11.0957 0)
(101.465 -7.34683 0)
(120.709 -5.89231 0)
(143.532 -4.52619 0)
(167.431 -3.04269 0)
(188.289 -2.62193 0)
(202.203 -2.05284 0)
(206.972 -2.20842 0)
(207.088 -1.77403 0)
(212.279 -2.77737 0)
(231.462 -4.7044 0)
(260.934 -9.27558 0)
(268.605 -16.0405 0)
(262.059 -19.0146 0)
(205.529 -20.3261 0)
(84.2556 -17.3997 0)
(42.0191 -13.1143 0)
(47.1522 -11.1356 0)
(65.1209 -9.01925 0)
(91.1172 -6.25012 0)
(113.814 -3.21161 0)
(125.786 -1.91585 0)
(122.815 -1.63949 0)
(111.861 -3.58891 0)
(102.332 -6.10214 0)
(106.874 -7.97806 0)
(123.091 -7.81176 0)
(143.721 -7.25136 0)
(165.228 -5.50181 0)
(181.819 -2.60114 0)
(193.758 1.79002 0)
(199.089 10.735 0)
(206.24 19.6977 0)
(221.339 26.1922 0)
(244.203 29.0629 0)
(254.337 27.2163 0)
(248.292 25.6933 0)
(220.43 24.2358 0)
(133.491 21.6772 0)
(75.0243 19.1212 0)
(72.8387 17.6644 0)
(84.1537 16.374 0)
(95.6163 17.5096 0)
(103.502 18.6333 0)
(104.116 18.4048 0)
(101.889 16.7358 0)
(103.645 12.0985 0)
(111.216 7.04846 0)
(123.271 1.56464 0)
(139.397 -2.73439 0)
(156.688 -6.46469 0)
(171.359 -8.49764 0)
(180.988 -10.3476 0)
(187.319 -10.7459 0)
(190.725 -8.94189 0)
(191.664 -4.13556 0)
(197.691 0.848505 0)
(214.524 6.57072 0)
(235.517 12.1863 0)
(241.297 14.191 0)
(239.309 14.0614 0)
(200.011 12.7647 0)
(117.632 8.78966 0)
(81.8514 7.32497 0)
(74.3351 6.2311 0)
(81.4252 5.87586 0)
(98.1977 6.28906 0)
(115.76 6.87093 0)
(127.321 6.66307 0)
(134.367 5.62481 0)
(138.948 4.00774 0)
(140.815 1.77015 0)
(146.031 0.0875305 0)
(156.345 -1.18957 0)
(168.84 -3.17719 0)
(178.268 -5.32436 0)
(182.352 -9.67942 0)
(184.199 -14.6923 0)
(189.346 -18.4699 0)
(199.706 -19.9843 0)
(216.567 -19.88 0)
(230.021 -18.6209 0)
(234.095 -15.349 0)
(223.903 -13.2469 0)
(180.613 -10.6394 0)
(109.937 -7.62353 0)
(81.5884 -5.99291 0)
(79.1008 -6.19336 0)
(87.4914 -5.17708 0)
(104.258 -3.55898 0)
(122.339 -1.49211 0)
(133.039 1.82224 0)
(135.709 7.42477 0)
(135.649 12.3896 0)
(135.177 16.2596 0)
(139.705 17.8914 0)
(148.795 17.9797 0)
(162.346 18.3058 0)
(178.848 17.5027 0)
(191.629 15.357 0)
(197.662 13.687 0)
(198.785 11.92 0)
(199.596 10.6532 0)
(205.232 9.27742 0)
(216.931 7.07531 0)
(222.554 3.15309 0)
(224.371 0.296804 0)
(215.857 -1.25936 0)
(177.197 -2.37583 0)
(124.339 -1.15429 0)
(111.146 0.195413 0)
(111.059 -0.249175 0)
(118.003 -0.7995 0)
(134.137 -0.966428 0)
(149.905 -2.13923 0)
(157.368 -3.03525 0)
(160.921 -3.33312 0)
(161.747 -2.83978 0)
(162.308 -1.51321 0)
(163.314 0.0549656 0)
(167.919 1.68506 0)
(178.389 2.28068 0)
(193.836 1.68394 0)
(205.701 0.314862 0)
(209.254 -2.19211 0)
(209.252 -4.56792 0)
(208.649 -6.45706 0)
(211.577 -7.64771 0)
(221.533 -9.17078 0)
(231.478 -11.2654 0)
(234.723 -13.8743 0)
(231.319 -16.3212 0)
(206.462 -18.3984 0)
(155.798 -19.0755 0)
(133.056 -19.6354 0)
(132.372 -20.4272 0)
(136.835 -21.5097 0)
(149.472 -22.8348 0)
(163.599 -24.4247 0)
(169.715 -25.7453 0)
(171.192 -26.1984 0)
(168.975 -26.0723 0)
(164.931 -25.5985 0)
(162.259 -24.9733 0)
(161.307 -24.7187 0)
(164.342 -25.2101 0)
(172.682 -25.7132 0)