/*--------------------------------*- C++ -*----------------------------------*\
| =========                 |                                                 |
| \\      /  F ield         | OpenFOAM: The Open Source CFD Toolbox           |
|  \\    /   O peration     | Version:  2306                                  |
|   \\  /    A nd           | Website:  www.openfoam.com                      |
|    \\/     M anipulation  |                                                 |
\*---------------------------------------------------------------------------*/
FoamFile
{
    version     2.0;
    format      ascii;
    arch        "LSB;label=32;scalar=64";
    class       volScalarField;
    location    "0.09";
    object      rho;
}
// * * * * * * * * * * * * * * * * * * * * * * * * * * * * * * * * * * * * * //

dimensions      [1 -3 0 0 0 0 0];

internalField   nonuniform List<scalar> 
6000
(
25.2519
0.227601
0.13626
0.149635
0.159827
0.184951
0.214897
0.240588
0.248358
0.247693
0.24612
0.243756
0.240084
0.230161
0.192791
0.149242
0.143834
0.145349
0.15047
0.156821
0.162783
0.168295
0.173623
0.178975
0.184515
0.190369
0.1967
0.203935
0.212642
0.219872
0.221115
0.21924
0.205134
0.165969
0.147321
0.146813
0.149073
0.153482
0.157456
0.160362
0.162759
0.165116
0.167633
0.170329
0.173102
0.175818
0.178549
0.181903
0.187446
0.195448
0.198962
0.19784
0.188383
0.161139
0.146368
0.145646
0.146738
0.149679
0.152539
0.154338
0.155575
0.156772
0.158182
0.15983
0.161559
0.163152
0.164546
0.165987
0.168143
0.172352
0.177877
0.179375
0.178261
0.17089
0.152821
0.143611
0.143007
0.143528
0.145479
0.14775
0.149135
0.149845
0.1504
0.151104
0.152049
0.153083
0.153963
0.15467
0.155499
0.157055
0.160206
0.163446
0.163672
0.162224
0.155281
0.14166
0.135461
0.134842
0.135088
0.136438
0.138076
0.13894
0.139253
0.139516
0.140014
0.140941
0.142372
0.144016
0.145657
0.147466
0.149741
0.153113
0.157714
0.162141
0.163983
0.163319
0.1562
0.148742
0.148224
0.149964
0.153406
0.157948
0.162067
0.165027
0.167276
0.16945
0.171929
0.17479
0.17772
0.180473
0.183316
0.1872
0.193023
0.197181
0.198629
0.195031
0.185344
0.180795
0.182655
0.186833
0.193614
0.201059
0.207399
0.212893
0.218612
0.225262
0.233095
0.242052
0.252586
0.265294
0.278529
0.28592
0.287758
0.281735
0.278825
0.286161
0.29909
0.316806
0.333902
0.347846
0.360753
0.375803
0.396839
0.427918
0.468056
0.50407
0.541345
0.580126
0.655463
0.770259
0.929569
1.11838
1.31285
1.42102
1.46216
1.45967
1.47991
1.52466
1.58716
1.6068
1.60456
1.58571
1.58453
1.59789
1.62872
1.64699
1.64815
1.6383
1.62916
1.63146
1.6411
1.65352
1.65651
1.65533
1.65012
1.64746
1.64843
1.65139
1.65355
1.65423
1.65319
1.65194
1.65281
1.65457
1.65686
1.65791
1.65815
1.65769
1.65742
1.65757
1.65812
1.65867
1.65871
1.65843
1.65764
1.65666
1.65589
1.65537
1.65504
1.65482
1.65482
1.65534
1.6567
1.65875
1.6604
1.66173
1.66263
1.66285
1.66237
1.66142
1.66042
1.65993
1.65931
1.65879
1.65858
1.65877
1.65924
1.65977
1.66021
1.66066
1.66098
1.66114
1.66111
1.66089
1.66052
1.66007
1.65961
1.65923
1.65904
1.65913
1.65948
1.6599
1.6602
1.66048
1.66062
1.66068
1.66069
1.6607
1.66072
1.66076
1.6608
1.66084
1.66077
1.66058
1.66039
1.66014
1.65982
1.65941
1.65898
1.65866
1.65847
1.65844
1.65835
1.6583
1.65833
1.65848
1.65872
1.65885
1.65892
1.65894
1.65884
1.65855
1.65811
1.65774
1.65762
1.6577
1.65788
1.65805
1.65814
1.65815
1.65803
1.65777
1.65741
1.65702
1.65674
1.65661
1.65658
1.65658
1.65671
1.65724
25.284
0.182543
0.135327
0.149176
0.160065
0.185718
0.215925
0.241305
0.248832
0.248143
0.246508
0.244067
0.240078
0.229429
0.1912
0.148592
0.143638
0.145196
0.150334
0.156672
0.162638
0.16818
0.173555
0.178962
0.184571
0.190533
0.197011
0.204352
0.213022
0.220044
0.22117
0.219247
0.20489
0.165592
0.147195
0.14673
0.149026
0.153451
0.157435
0.160345
0.162739
0.165082
0.167577
0.170241
0.172983
0.175674
0.178395
0.181749
0.187266
0.19529
0.198908
0.197834
0.188435
0.161279
0.146465
0.145739
0.146831
0.149779
0.152649
0.154453
0.155682
0.156868
0.158271
0.159912
0.161635
0.163223
0.16461
0.166043
0.168189
0.172384
0.177904
0.179413
0.178312
0.170969
0.152929
0.143759
0.143166
0.143699
0.145666
0.147949
0.149342
0.150055
0.150611
0.151317
0.152262
0.153292
0.154165
0.154864
0.155684
0.157233
0.160381
0.163593
0.163794
0.162301
0.155339
0.141782
0.135661
0.135056
0.135317
0.136693
0.138355
0.139231
0.139547
0.139806
0.140295
0.141205
0.142609
0.144224
0.145845
0.147641
0.1499
0.153236
0.157775
0.162104
0.163916
0.163185
0.156064
0.148684
0.148192
0.149918
0.15333
0.157827
0.161892
0.164796
0.167012
0.169173
0.171644
0.174499
0.177427
0.180182
0.183067
0.187068
0.193023
0.197269
0.198751
0.195138
0.185476
0.181048
0.182923
0.18709
0.193835
0.201224
0.207508
0.212908
0.218513
0.22503
0.232719
0.241555
0.251999
0.264707
0.278194
0.285656
0.287671
0.281654
0.27856
0.285872
0.298812
0.316587
0.333883
0.348089
0.361223
0.376439
0.397554
0.428808
0.469115
0.505189
0.542398
0.5814
0.656529
0.770758
0.929072
1.11635
1.30759
1.412
1.4522
1.45064
1.47189
1.51896
1.58807
1.61114
1.60848
1.58603
1.58164
1.5939
1.62471
1.64661
1.64941
1.64122
1.63042
1.63182
1.6398
1.65232
1.65635
1.65561
1.65104
1.64792
1.64864
1.6511
1.65325
1.65404
1.65325
1.65203
1.65279
1.65444
1.65671
1.65789
1.65818
1.6578
1.65754
1.65767
1.6582
1.65876
1.65879
1.65852
1.65774
1.65677
1.65598
1.65547
1.65516
1.65496
1.65499
1.65553
1.65686
1.65884
1.66044
1.66172
1.66258
1.66278
1.66233
1.66142
1.66044
1.65997
1.6594
1.6589
1.6587
1.65885
1.65928
1.65977
1.66018
1.6606
1.66087
1.661
1.66094
1.66072
1.66038
1.65998
1.65957
1.65924
1.65908
1.65911
1.65934
1.65967
1.65994
1.66017
1.6603
1.66036
1.66041
1.66047
1.66056
1.66066
1.66076
1.66081
1.66077
1.66059
1.66041
1.66018
1.65988
1.65948
1.65905
1.6587
1.6585
1.65846
1.65839
1.65836
1.65842
1.65859
1.65884
1.65898
1.65906
1.65909
1.65899
1.65871
1.65828
1.65788
1.65775
1.65782
1.65799
1.65816
1.65827
1.65828
1.65817
1.65793
1.65757
1.65717
1.65692
1.65681
1.65679
1.65684
1.65701
1.65753
25.2431
0.210577
0.134207
0.148749
0.160497
0.186626
0.217324
0.24255
0.24965
0.248893
0.247181
0.244596
0.240275
0.228713
0.18884
0.147595
0.14332
0.144987
0.150184
0.156507
0.162471
0.168048
0.17348
0.178954
0.184628
0.190671
0.197265
0.204772
0.213542
0.22042
0.221395
0.219376
0.204547
0.164939
0.147062
0.14666
0.14899
0.153407
0.157371
0.16028
0.162685
0.165039
0.167538
0.170194
0.172902
0.175538
0.178194
0.181483
0.186964
0.195059
0.198776
0.197756
0.188516
0.16152
0.146603
0.145862
0.146946
0.149899
0.152784
0.154598
0.155831
0.157016
0.158417
0.160057
0.161778
0.163358
0.164731
0.166148
0.168281
0.172466
0.177969
0.17946
0.178354
0.170978
0.153013
0.143991
0.143439
0.143999
0.146007
0.148313
0.14971
0.150423
0.150978
0.151683
0.152627
0.153652
0.154513
0.155197
0.156
0.15754
0.160683
0.163856
0.164002
0.162479
0.155476
0.141977
0.135956
0.135373
0.13566
0.137093
0.138817
0.139723
0.140045
0.140298
0.140773
0.141658
0.143015
0.144574
0.14615
0.147907
0.15013
0.15342
0.15788
0.162033
0.163783
0.16294
0.155803
0.14857
0.148146
0.149888
0.153306
0.157773
0.161767
0.164595
0.166748
0.168859
0.171287
0.174103
0.177017
0.179817
0.182808
0.186981
0.193173
0.197558
0.199072
0.19542
0.18572
0.181346
0.183233
0.187421
0.194197
0.201539
0.207654
0.212851
0.218229
0.22447
0.231837
0.240344
0.250504
0.263115
0.276864
0.284552
0.286955
0.281104
0.277748
0.285026
0.298077
0.316126
0.333947
0.34889
0.362797
0.378793
0.400687
0.432606
0.473383
0.509599
0.54636
0.584616
0.65804
0.769363
0.922573
1.10215
1.28289
1.38131
1.42073
1.42095
1.44609
1.49845
1.57824
1.61339
1.61545
1.59189
1.58001
1.58955
1.61808
1.64556
1.65047
1.64539
1.63333
1.63281
1.63835
1.64999
1.65567
1.65572
1.65246
1.64885
1.64911
1.65084
1.65281
1.65371
1.65329
1.65225
1.65286
1.65431
1.6564
1.65775
1.65812
1.65792
1.65771
1.65784
1.65831
1.65881
1.65885
1.65861
1.65788
1.6569
1.65609
1.65561
1.65534
1.65518
1.65528
1.65585
1.65716
1.65902
1.6605
1.66165
1.66244
1.66263
1.66222
1.66139
1.66049
1.66005
1.65957
1.65914
1.65894
1.65903
1.65936
1.65978
1.66011
1.66046
1.66068
1.66078
1.66073
1.66053
1.66024
1.65989
1.65955
1.65928
1.65914
1.65911
1.65919
1.65937
1.65954
1.65971
1.65981
1.65988
1.65997
1.6601
1.66029
1.6605
1.66067
1.66076
1.66074
1.66058
1.6604
1.6602
1.65993
1.65956
1.65914
1.65877
1.65856
1.65851
1.65847
1.65848
1.65857
1.65876
1.659
1.65913
1.65921
1.65924
1.65915
1.65889
1.65848
1.65808
1.65793
1.65798
1.65813
1.65831
1.6584
1.65842
1.6583
1.65807
1.65773
1.65738
1.65715
1.65707
1.6571
1.65721
1.65743
1.65796
25.2766
0.167491
0.135257
0.14882
0.160912
0.187849
0.219078
0.244108
0.250651
0.249764
0.247901
0.245097
0.240438
0.227998
0.186353
0.146674
0.143133
0.144921
0.150201
0.156519
0.162487
0.168097
0.173576
0.17909
0.184773
0.190823
0.197552
0.205351
0.214293
0.220909
0.221615
0.219403
0.203943
0.164
0.146878
0.146581
0.148973
0.1534
0.15735
0.160246
0.162643
0.164992
0.16748
0.170111
0.172781
0.175378
0.177986
0.181217
0.18666
0.194794
0.198596
0.197643
0.188601
0.161818
0.146793
0.146042
0.147118
0.150079
0.152983
0.154808
0.156042
0.157225
0.158626
0.160271
0.161997
0.163573
0.164935
0.166336
0.168459
0.172646
0.178125
0.179573
0.178462
0.171012
0.153067
0.144279
0.143775
0.144375
0.146435
0.148764
0.15016
0.150864
0.151411
0.152109
0.153047
0.154064
0.154908
0.155565
0.15634
0.157871
0.161024
0.164182
0.164322
0.1628
0.155767
0.14232
0.13641
0.135849
0.136169
0.137658
0.139426
0.140342
0.140658
0.140895
0.141342
0.142182
0.143458
0.144923
0.146422
0.148109
0.150268
0.153509
0.157925
0.161925
0.163616
0.162624
0.155409
0.148323
0.14798
0.149746
0.153188
0.157653
0.161602
0.164345
0.166412
0.168446
0.170807
0.173597
0.176585
0.179557
0.182768
0.18718
0.193594
0.198101
0.199625
0.195898
0.1861
0.181767
0.183667
0.187903
0.194736
0.201984
0.207791
0.212608
0.217584
0.223382
0.230276
0.238313
0.248061
0.260462
0.274436
0.282348
0.285272
0.279769
0.27611
0.283481
0.296828
0.315461
0.334348
0.350644
0.365952
0.383348
0.406713
0.440218
0.481999
0.518265
0.553495
0.589257
0.658553
0.76269
0.902988
1.064
1.22586
1.31895
1.36201
1.36902
1.4006
1.45884
1.55334
1.6082
1.61971
1.59989
1.58059
1.58763
1.61233
1.64345
1.65151
1.64874
1.6366
1.63348
1.63725
1.64758
1.65508
1.65582
1.6538
1.64993
1.6494
1.65059
1.65243
1.65342
1.65341
1.65262
1.65298
1.65421
1.65606
1.65759
1.65806
1.65808
1.65795
1.65808
1.65848
1.65894
1.65899
1.65877
1.65809
1.6571
1.65626
1.65581
1.6556
1.65551
1.6557
1.65633
1.6576
1.6593
1.66062
1.66161
1.66228
1.66245
1.66209
1.66136
1.66054
1.66012
1.65975
1.6594
1.65921
1.65923
1.65945
1.65976
1.66
1.66027
1.66044
1.66051
1.66047
1.66032
1.6601
1.65982
1.65955
1.65933
1.65918
1.65908
1.65901
1.659
1.65899
1.65908
1.65915
1.65923
1.65937
1.65961
1.65995
1.66031
1.66059
1.66073
1.66073
1.66061
1.66043
1.66023
1.65997
1.65962
1.65921
1.65882
1.6586
1.65856
1.65856
1.65861
1.65876
1.65899
1.65923
1.65935
1.65944
1.65945
1.65936
1.65911
1.65873
1.65834
1.65816
1.65819
1.65833
1.65849
1.65859
1.65862
1.65853
1.65834
1.65808
1.6578
1.6576
1.65753
1.65759
1.65775
1.65801
1.65852
25.2228
0.210618
0.136936
0.149992
0.162047
0.188915
0.22023
0.245319
0.251665
0.250732
0.248757
0.245825
0.240914
0.227641
0.184217
0.145947
0.142968
0.144918
0.150295
0.156609
0.162578
0.168216
0.173734
0.179272
0.184966
0.191072
0.197977
0.206103
0.215171
0.221422
0.221865
0.219435
0.203228
0.162949
0.14666
0.146455
0.148905
0.153333
0.157265
0.160161
0.16257
0.164936
0.167439
0.170079
0.172744
0.175316
0.177886
0.181078
0.186478
0.194592
0.19842
0.197504
0.188619
0.162076
0.146992
0.146239
0.147302
0.150264
0.153182
0.155017
0.156255
0.157443
0.158853
0.160512
0.16225
0.163831
0.165188
0.166581
0.168707
0.17292
0.178347
0.179692
0.178549
0.170955
0.152997
0.144498
0.144046
0.14468
0.146786
0.149131
0.15053
0.151245
0.151808
0.152529
0.153491
0.154529
0.155391
0.156061
0.156839
0.158369
0.161522
0.164653
0.164771
0.163227
0.156128
0.142705
0.136914
0.136372
0.136717
0.138245
0.140043
0.140978
0.141303
0.14154
0.141979
0.142805
0.144024
0.145385
0.146768
0.148331
0.150384
0.15355
0.157909
0.161751
0.163391
0.162258
0.154926
0.148016
0.147795
0.149602
0.153082
0.157562
0.161464
0.164117
0.166117
0.168114
0.17046
0.173278
0.176344
0.179449
0.182823
0.187452
0.194133
0.198847
0.200418
0.196586
0.186638
0.182349
0.184229
0.188476
0.195358
0.202501
0.207966
0.212309
0.21681
0.222088
0.228407
0.235889
0.24516
0.25727
0.271349
0.279437
0.282897
0.27787
0.273995
0.281605
0.295438
0.314978
0.335368
0.353585
0.370886
0.390269
0.415715
0.451364
0.494037
0.529444
0.561069
0.592119
0.65458
0.746389
0.865853
0.999738
1.13699
1.22882
1.28144
1.30429
1.34603
1.41174
1.51736
1.59911
1.62126
1.60851
1.58432
1.58882
1.60893
1.64082
1.65176
1.65061
1.63933
1.63399
1.63672
1.64585
1.6547
1.65614
1.65482
1.65087
1.64952
1.65037
1.65219
1.65329
1.65367
1.65307
1.65313
1.65416
1.65577
1.65742
1.65808
1.65824
1.65818
1.65831
1.65864
1.65908
1.65918
1.65898
1.65834
1.6573
1.65644
1.65604
1.65589
1.65592
1.65621
1.65693
1.65818
1.65968
1.6608
1.66158
1.66208
1.66219
1.66185
1.66122
1.66056
1.66016
1.65993
1.65968
1.65949
1.65945
1.65954
1.65973
1.6599
1.66003
1.66014
1.66019
1.66018
1.6601
1.65996
1.65979
1.65958
1.65941
1.65925
1.65906
1.65882
1.6586
1.65841
1.65841
1.65844
1.65852
1.65872
1.65907
1.65953
1.66006
1.66049
1.66068
1.66071
1.66061
1.66045
1.66024
1.65998
1.65966
1.65926
1.65885
1.65863
1.65859
1.65863
1.65873
1.65894
1.65922
1.65945
1.65958
1.65967
1.65967
1.65957
1.65934
1.65899
1.65862
1.65842
1.65842
1.65853
1.65867
1.65878
1.65881
1.65877
1.65865
1.6585
1.65832
1.65819
1.65814
1.65821
1.65839
1.65867
1.65913
25.1792
0.244992
0.138015
0.1508
0.162777
0.189404
0.220745
0.246132
0.252666
0.25176
0.249762
0.246856
0.241859
0.227879
0.182907
0.145581
0.143003
0.145087
0.150555
0.156863
0.162813
0.168445
0.173964
0.179502
0.185212
0.19139
0.19852
0.206961
0.216026
0.22183
0.222056
0.2194
0.2025
0.162063
0.146527
0.146386
0.148871
0.153285
0.157193
0.160081
0.162498
0.164881
0.167407
0.170074
0.172761
0.175337
0.177902
0.181089
0.186453
0.194502
0.198277
0.197359
0.188561
0.162223
0.14717
0.146424
0.147473
0.150429
0.153356
0.155203
0.156451
0.157648
0.15907
0.160746
0.162502
0.164097
0.165462
0.166859
0.169003
0.173266
0.178619
0.179804
0.178597
0.17075
0.152749
0.144589
0.144175
0.144841
0.146976
0.149314
0.150697
0.151408
0.151978
0.152711
0.15369
0.154754
0.155654
0.156377
0.157212
0.158793
0.161978
0.165095
0.165204
0.16364
0.156448
0.143017
0.137337
0.136803
0.137163
0.138697
0.14049
0.141425
0.141754
0.141998
0.142448
0.143285
0.144524
0.145887
0.147226
0.148711
0.150657
0.153712
0.157983
0.161603
0.163156
0.161864
0.154383
0.147647
0.147541
0.149386
0.152898
0.157357
0.161201
0.163825
0.165839
0.167869
0.170265
0.173144
0.176275
0.179471
0.182977
0.187788
0.194738
0.199718
0.201401
0.197487
0.187384
0.183121
0.184965
0.189171
0.196034
0.203005
0.208118
0.212095
0.216182
0.220972
0.226764
0.233751
0.242593
0.254391
0.268351
0.27663
0.280504
0.275961
0.272021
0.279839
0.294374
0.315023
0.337187
0.35765
0.37727
0.398925
0.426655
0.464366
0.506908
0.540074
0.566092
0.590953
0.643352
0.719064
0.815403
0.921849
1.036
1.13165
1.19707
1.24193
1.29639
1.37104
1.48271
1.58801
1.62099
1.61659
1.59081
1.59138
1.60745
1.63789
1.65121
1.65129
1.64157
1.63484
1.63686
1.64486
1.6542
1.6562
1.65524
1.65147
1.64956
1.65025
1.65209
1.65339
1.65398
1.65354
1.65332
1.65422
1.65563
1.65733
1.65818
1.65841
1.65837
1.65848
1.65875
1.6592
1.65934
1.65917
1.65855
1.65749
1.65663
1.6563
1.6562
1.65636
1.6568
1.65762
1.65883
1.66011
1.66098
1.66152
1.66182
1.66179
1.66147
1.66094
1.66047
1.66017
1.66007
1.65993
1.65977
1.65968
1.65967
1.65972
1.65978
1.65982
1.65987
1.65992
1.65994
1.65992
1.65987
1.65979
1.65967
1.65953
1.65933
1.65905
1.65866
1.65824
1.65788
1.65777
1.65777
1.65786
1.65811
1.65854
1.6591
1.65976
1.66034
1.66062
1.66068
1.66061
1.66047
1.66027
1.66003
1.65971
1.65932
1.65889
1.65866
1.65863
1.6587
1.65886
1.65913
1.65945
1.65967
1.65982
1.6599
1.65988
1.65976
1.65952
1.65921
1.65889
1.6587
1.65866
1.65872
1.65884
1.65895
1.65901
1.65902
1.65898
1.65893
1.65888
1.65884
1.65882
1.65888
1.65904
1.65929
1.6596
25.1557
0.261911
0.138616
0.151209
0.163015
0.189503
0.220748
0.246482
0.253423
0.25255
0.250549
0.247773
0.24291
0.228667
0.182684
0.14561
0.143218
0.145413
0.150966
0.157278
0.163203
0.168811
0.174318
0.17987
0.185635
0.191933
0.199244
0.207832
0.216753
0.222134
0.222105
0.219262
0.201924
0.161549
0.146542
0.146419
0.14892
0.15332
0.157206
0.16009
0.162514
0.164911
0.167463
0.170166
0.172897
0.175508
0.178082
0.181235
0.186568
0.194515
0.198165
0.197208
0.18841
0.162225
0.147289
0.146552
0.147596
0.150546
0.153485
0.15535
0.156613
0.157826
0.159266
0.160964
0.162744
0.164361
0.16574
0.167157
0.169338
0.17366
0.178914
0.179926
0.178606
0.170384
0.152309
0.144566
0.144188
0.144882
0.147032
0.149353
0.150716
0.151418
0.151988
0.152726
0.153716
0.154796
0.155728
0.156498
0.157404
0.159069
0.162316
0.165425
0.165522
0.163943
0.156624
0.143152
0.137584
0.137054
0.13742
0.138939
0.140707
0.14163
0.141952
0.142189
0.142637
0.143481
0.144767
0.146186
0.147555
0.149064
0.151011
0.154013
0.158171
0.161542
0.162989
0.161488
0.15381
0.147244
0.147243
0.149134
0.152691
0.157156
0.160994
0.163645
0.165705
0.167786
0.170245
0.173166
0.17633
0.179563
0.183173
0.188154
0.195332
0.200578
0.202418
0.198476
0.188242
0.183986
0.185818
0.18997
0.196741
0.203444
0.208202
0.211886
0.215693
0.220171
0.225658
0.232389
0.24098
0.252517
0.26629
0.274635
0.278781
0.274603
0.27062
0.278672
0.293904
0.315604
0.339504
0.362135
0.384118
0.408007
0.437786
0.47706
0.518339
0.548392
0.567667
0.585584
0.626843
0.687627
0.765602
0.85241
0.950748
1.0522
1.13088
1.19736
1.26361
1.3457
1.45939
1.57894
1.62117
1.62275
1.59777
1.59412
1.60673
1.635
1.65049
1.65157
1.64363
1.63609
1.63744
1.64428
1.65354
1.65601
1.65531
1.6518
1.64962
1.65023
1.65208
1.65362
1.65435
1.65402
1.65366
1.65447
1.65574
1.65738
1.65832
1.65855
1.65849
1.65855
1.65879
1.65924
1.65943
1.65925
1.65865
1.65762
1.65683
1.65656
1.65656
1.65684
1.65742
1.65832
1.65947
1.6605
1.66111
1.66141
1.66148
1.66131
1.66093
1.66051
1.66027
1.6602
1.66019
1.66018
1.66009
1.65995
1.65982
1.65973
1.65967
1.65967
1.65965
1.65969
1.65976
1.65983
1.65987
1.65988
1.65984
1.65972
1.65948
1.65909
1.65856
1.65794
1.65743
1.65723
1.65719
1.65729
1.65759
1.65808
1.65872
1.65947
1.66015
1.66055
1.66065
1.66062
1.6605
1.66032
1.66008
1.65978
1.65939
1.65895
1.65869
1.65866
1.65875
1.65897
1.65929
1.65962
1.65985
1.66001
1.66009
1.66006
1.65992
1.65968
1.65938
1.65911
1.65892
1.65885
1.65886
1.65895
1.65904
1.65912
1.65918
1.65923
1.65929
1.65935
1.6594
1.65944
1.65951
1.65963
1.6598
1.65995
25.1311
0.283415
0.139073
0.151711
0.163047
0.189203
0.220247
0.246383
0.253979
0.253167
0.251142
0.248412
0.24366
0.229638
0.183591
0.146072
0.14365
0.1459
0.151527
0.157855
0.163752
0.169324
0.174818
0.180402
0.186255
0.19268
0.200083
0.208644
0.217317
0.222344
0.222151
0.219193
0.201625
0.161359
0.146681
0.146573
0.149082
0.153466
0.157331
0.160204
0.162628
0.165041
0.167618
0.170352
0.173113
0.175749
0.178334
0.18148
0.186764
0.194576
0.198083
0.197056
0.188183
0.162083
0.147338
0.146617
0.147664
0.150615
0.153568
0.155457
0.156742
0.157977
0.15944
0.161161
0.162963
0.1646
0.165998
0.167443
0.169682
0.174074
0.179176
0.180019
0.178569
0.169887
0.151705
0.14441
0.144056
0.144785
0.146951
0.149257
0.150605
0.151311
0.151895
0.152655
0.153672
0.154779
0.155734
0.156525
0.15746
0.159182
0.1625
0.165615
0.165688
0.164079
0.156635
0.143128
0.137673
0.137149
0.137514
0.139008
0.140748
0.141657
0.141966
0.142185
0.142612
0.14345
0.144753
0.146219
0.147637
0.1492
0.151236
0.15431
0.158456
0.161615
0.162968
0.161204
0.153214
0.146788
0.146896
0.148834
0.15244
0.156936
0.160807
0.163522
0.165667
0.167825
0.170322
0.173281
0.176478
0.179764
0.183447
0.188554
0.195917
0.2014
0.203405
0.199483
0.189129
0.184792
0.186629
0.190789
0.197483
0.203973
0.208412
0.21182
0.215481
0.219899
0.225347
0.231959
0.240351
0.251703
0.265356
0.273692
0.277931
0.27393
0.269949
0.27818
0.29389
0.31648
0.341708
0.365978
0.389881
0.415799
0.447359
0.487906
0.527728
0.554462
0.567565
0.579567
0.612735
0.663675
0.7305
0.806765
0.897358
1.00266
1.0933
1.17332
1.24792
1.33422
1.44728
1.57363
1.62269
1.6275
1.60307
1.59579
1.60619
1.63261
1.65016
1.652
1.64545
1.63723
1.63806
1.64382
1.65283
1.65571
1.65521
1.65205
1.64975
1.6503
1.65209
1.65385
1.6547
1.65458
1.65421
1.65494
1.65611
1.65759
1.65839
1.65856
1.65845
1.65848
1.65871
1.65917
1.6594
1.65922
1.65866
1.65773
1.65706
1.65686
1.65695
1.65736
1.65804
1.65899
1.66001
1.66078
1.66115
1.66125
1.66109
1.66075
1.6603
1.66
1.65999
1.66015
1.6603
1.66037
1.66036
1.66023
1.66002
1.65979
1.6596
1.65952
1.65951
1.65954
1.65966
1.6598
1.65994
1.66006
1.6601
1.65999
1.65969
1.6592
1.65853
1.65775
1.65713
1.65685
1.65678
1.65688
1.65722
1.65775
1.65845
1.65924
1.66
1.66049
1.66068
1.66069
1.6606
1.66044
1.66022
1.65992
1.65952
1.65907
1.65877
1.65872
1.65882
1.65906
1.65941
1.65972
1.65997
1.66014
1.66022
1.66017
1.66001
1.65977
1.65949
1.65924
1.65905
1.65895
1.65893
1.65899
1.65907
1.65916
1.65926
1.65939
1.65954
1.65968
1.6598
1.6599
1.66001
1.6601
1.66019
1.66019
25.1421
0.270517
0.139639
0.152155
0.162839
0.188807
0.219646
0.246191
0.254388
0.253602
0.251485
0.248757
0.244141
0.230535
0.184905
0.146697
0.144144
0.146424
0.152115
0.158482
0.164383
0.169942
0.175437
0.181052
0.186976
0.19348
0.200911
0.209402
0.217871
0.222655
0.222365
0.21932
0.201609
0.161421
0.146955
0.146861
0.149383
0.153767
0.157629
0.160502
0.16293
0.165342
0.167911
0.170634
0.173387
0.176028
0.178613
0.181749
0.187007
0.194698
0.198055
0.196946
0.187937
0.16185
0.147343
0.146641
0.147703
0.150663
0.153633
0.155543
0.156849
0.158102
0.159582
0.161317
0.163132
0.164781
0.166198
0.167678
0.169996
0.17449
0.179475
0.180152
0.17854
0.169332
0.151034
0.144194
0.143862
0.144627
0.146817
0.149098
0.150414
0.151109
0.151699
0.152477
0.153521
0.154658
0.155639
0.156455
0.157416
0.159187
0.162549
0.165637
0.165672
0.16404
0.156442
0.142917
0.13763
0.137123
0.13749
0.138967
0.140697
0.141612
0.141921
0.142133
0.142545
0.143347
0.144587
0.146055
0.147526
0.149136
0.151271
0.154511
0.158723
0.1617
0.16297
0.160964
0.152606
0.146281
0.146481
0.148456
0.152089
0.156583
0.160473
0.163249
0.165476
0.167721
0.17033
0.173391
0.176693
0.180068
0.183815
0.188988
0.196458
0.202149
0.204323
0.200453
0.190027
0.185559
0.187418
0.191615
0.198305
0.204614
0.208839
0.212083
0.215606
0.220006
0.225477
0.232059
0.240403
0.251667
0.2652
0.273473
0.277705
0.273773
0.269857
0.278218
0.294242
0.317362
0.343348
0.368523
0.393502
0.42088
0.454248
0.496282
0.535322
0.559361
0.568204
0.577349
0.606546
0.652651
0.714485
0.786973
0.874909
0.981632
1.07837
1.16452
1.24306
1.33093
1.44285
1.57113
1.62414
1.6305
1.60617
1.59655
1.60592
1.63151
1.65031
1.65259
1.64668
1.63792
1.6383
1.64335
1.6522
1.65552
1.65521
1.65237
1.64996
1.65041
1.6521
1.65403
1.65501
1.65515
1.65495
1.65563
1.65666
1.65793
1.65848
1.65854
1.65832
1.6583
1.65851
1.65898
1.65923
1.65907
1.65855
1.65778
1.65731
1.6572
1.6574
1.6579
1.65864
1.65955
1.66038
1.66092
1.66114
1.66102
1.66067
1.66016
1.65966
1.65947
1.65967
1.66003
1.66036
1.66053
1.66057
1.6605
1.66025
1.6599
1.65959
1.65945
1.65945
1.65948
1.65964
1.65986
1.66012
1.66032
1.6604
1.66028
1.65993
1.65936
1.65858
1.6577
1.657
1.65668
1.65658
1.6567
1.65706
1.65762
1.65834
1.65913
1.6599
1.66046
1.66075
1.66081
1.66076
1.66062
1.66042
1.66012
1.65972
1.65925
1.6589
1.65883
1.65892
1.65916
1.65946
1.65976
1.66002
1.66018
1.66025
1.6602
1.66004
1.6598
1.65954
1.65929
1.65908
1.65893
1.65889
1.65892
1.65899
1.65909
1.65923
1.65941
1.65963
1.65984
1.66003
1.6602
1.66033
1.66039
1.66045
1.66031
25.2109
0.216238
0.140827
0.152845
0.163301
0.189043
0.219383
0.24603
0.254689
0.253998
0.251904
0.249196
0.244632
0.231255
0.185737
0.147101
0.144504
0.146817
0.152561
0.158964
0.16489
0.170472
0.175972
0.181588
0.187538
0.194095
0.201583
0.210091
0.218533
0.223202
0.222831
0.219689
0.201819
0.161648
0.14732
0.147235
0.149769
0.154156
0.158014
0.160881
0.163302
0.165704
0.168262
0.170973
0.173714
0.176333
0.178901
0.182031
0.187288
0.194892
0.198097
0.196911
0.187719
0.161583
0.14734
0.146657
0.147742
0.150716
0.153699
0.155622
0.156939
0.1582
0.159682
0.161415
0.163221
0.164864
0.16629
0.167805
0.170218
0.174864
0.179793
0.180319
0.178553
0.168797
0.150397
0.144015
0.143717
0.144526
0.146736
0.148992
0.150278
0.150954
0.151534
0.152306
0.153342
0.154469
0.155446
0.156268
0.157251
0.159064
0.162463
0.165507
0.165492
0.163795
0.156019
0.142535
0.137481
0.13701
0.1374
0.138892
0.140636
0.141574
0.141899
0.142113
0.142525
0.143317
0.144508
0.14591
0.147343
0.148951
0.151171
0.154589
0.158891
0.1617
0.162873
0.160662
0.151953
0.145709
0.145981
0.147957
0.151561
0.156011
0.159894
0.162734
0.165056
0.167413
0.170151
0.173355
0.176794
0.180263
0.184069
0.189289
0.196793
0.202671
0.205024
0.20131
0.190833
0.186195
0.188121
0.192407
0.19913
0.205427
0.209681
0.212936
0.216419
0.220688
0.226034
0.232569
0.240862
0.252005
0.26527
0.273384
0.277588
0.273842
0.270169
0.278679
0.294907
0.318237
0.344277
0.36927
0.394393
0.422606
0.457815
0.502371
0.542555
0.565316
0.57129
0.578979
0.606524
0.651583
0.712089
0.783108
0.870201
0.976038
1.07432
1.1626
1.24329
1.33171
1.44323
1.57066
1.62436
1.63142
1.60769
1.59761
1.60662
1.63168
1.6504
1.65275
1.64705
1.63814
1.63826
1.64298
1.65191
1.65552
1.65533
1.65266
1.65017
1.65054
1.65216
1.6542
1.65529
1.65567
1.65566
1.65637
1.6573
1.6583
1.65863
1.65851
1.6581
1.658
1.65818
1.65867
1.65895
1.6588
1.65837
1.65782
1.65757
1.65759
1.6579
1.65848
1.65921
1.65997
1.66058
1.66093
1.66101
1.66075
1.66022
1.65959
1.65909
1.65903
1.65934
1.65985
1.66035
1.66066
1.66074
1.66074
1.66052
1.66013
1.65973
1.65949
1.65946
1.65951
1.65972
1.66
1.66033
1.66058
1.66069
1.66058
1.66019
1.65955
1.65871
1.65778
1.65705
1.65669
1.65659
1.65672
1.65709
1.65766
1.65837
1.65914
1.65988
1.66047
1.66081
1.66094
1.66094
1.66084
1.66065
1.66036
1.65996
1.65949
1.6591
1.65898
1.65904
1.65924
1.6595
1.65976
1.65999
1.66015
1.66021
1.66016
1.66002
1.65979
1.65953
1.65926
1.659
1.65878
1.65869
1.65871
1.65878
1.6589
1.6591
1.65935
1.65963
1.65992
1.66018
1.66037
1.66049
1.66052
1.66054
1.6603
25.2791
0.158105
0.140678
0.152949
0.163802
0.189348
0.219566
0.246204
0.254917
0.254314
0.252281
0.249604
0.244995
0.23152
0.185719
0.147178
0.144654
0.147007
0.152792
0.159226
0.165181
0.170788
0.176314
0.181964
0.187945
0.194538
0.202064
0.210665
0.219191
0.223845
0.223453
0.220224
0.202179
0.161915
0.147702
0.14763
0.150182
0.154582
0.158441
0.161302
0.163709
0.166092
0.168626
0.17131
0.174022
0.176619
0.179179
0.182316
0.187592
0.19514
0.198213
0.196949
0.187552
0.161315
0.147359
0.14669
0.147793
0.150778
0.153761
0.155686
0.157005
0.158264
0.159737
0.161454
0.163241
0.164864
0.16629
0.167843
0.17036
0.175167
0.180106
0.180536
0.178645
0.168402
0.149929
0.143955
0.143695
0.144555
0.146808
0.14905
0.150305
0.150961
0.151527
0.152287
0.153301
0.154387
0.155305
0.156065
0.157004
0.158814
0.162229
0.165193
0.165116
0.163354
0.155442
0.142125
0.137356
0.13693
0.137358
0.1389
0.140705
0.141698
0.142056
0.14228
0.142664
0.1434
0.144507
0.145808
0.147158
0.14874
0.151005
0.154553
0.158891
0.1615
0.162556
0.160181
0.151192
0.144999
0.145304
0.147241
0.150761
0.155123
0.158981
0.161858
0.164267
0.166755
0.169649
0.173021
0.176607
0.180202
0.184097
0.189361
0.19689
0.202964
0.205516
0.202085
0.19165
0.186752
0.188752
0.193168
0.200033
0.206582
0.211174
0.214646
0.218167
0.222371
0.227552
0.233883
0.241985
0.252887
0.265726
0.273509
0.277558
0.273985
0.270764
0.279492
0.29576
0.318938
0.344426
0.368781
0.393611
0.422057
0.458494
0.506106
0.55007
0.574543
0.580288
0.587833
0.614628
0.65897
0.718686
0.788615
0.87431
0.978172
1.07445
1.16277
1.24596
1.33529
1.44722
1.57273
1.62399
1.63048
1.60785
1.59918
1.60825
1.63277
1.65027
1.65236
1.64652
1.6381
1.63847
1.64356
1.65236
1.65564
1.65543
1.65274
1.65036
1.65074
1.65239
1.65443
1.65556
1.65603
1.6562
1.65698
1.65789
1.65866
1.6588
1.6585
1.65783
1.65762
1.65773
1.65818
1.65853
1.65845
1.65819
1.65791
1.65784
1.65802
1.65849
1.65911
1.6597
1.66021
1.66062
1.66082
1.66074
1.66037
1.65973
1.65908
1.6587
1.65869
1.65904
1.65964
1.66027
1.66071
1.66089
1.66091
1.66078
1.66041
1.65996
1.65966
1.6596
1.65965
1.65986
1.66018
1.66055
1.66083
1.66094
1.66083
1.66044
1.6598
1.65895
1.65802
1.65727
1.6569
1.6568
1.65692
1.65728
1.65783
1.65849
1.65922
1.65992
1.6605
1.66086
1.66103
1.66108
1.66101
1.66085
1.66057
1.66018
1.65972
1.65932
1.65914
1.65917
1.65932
1.65953
1.65975
1.65994
1.66008
1.66013
1.6601
1.65997
1.65976
1.65949
1.65918
1.65886
1.65857
1.65843
1.65843
1.65849
1.65862
1.65887
1.65921
1.65958
1.65993
1.66017
1.66034
1.66045
1.66045
1.66045
1.66014
25.2229
0.219169
0.137412
0.152163
0.164402
0.18962
0.219883
0.246504
0.254907
0.25436
0.252343
0.249691
0.245013
0.231236
0.185011
0.146981
0.144622
0.14701
0.152818
0.159279
0.16527
0.170919
0.176483
0.182152
0.18814
0.194738
0.202305
0.210991
0.219654
0.224378
0.223961
0.220724
0.202533
0.162131
0.147998
0.147948
0.150527
0.15494
0.158798
0.161646
0.164035
0.166394
0.168904
0.171566
0.174263
0.176852
0.179416
0.18258
0.187919
0.195448
0.198397
0.19706
0.187438
0.161068
0.147394
0.14675
0.147865
0.150846
0.153816
0.155732
0.157045
0.158295
0.159754
0.16145
0.163213
0.164815
0.166236
0.167828
0.170447
0.175413
0.180407
0.180799
0.178832
0.16818
0.149669
0.144054
0.143826
0.144746
0.147055
0.149266
0.150464
0.151088
0.151639
0.152379
0.153359
0.154389
0.155238
0.155932
0.156815
0.158617
0.162046
0.164895
0.164754
0.162911
0.154891
0.141768
0.137252
0.136867
0.137331
0.138936
0.140807
0.141852
0.142246
0.142493
0.142889
0.143605
0.144648
0.145852
0.147087
0.148557
0.150768
0.15438
0.158699
0.161059
0.161973
0.159468
0.150273
0.1441
0.144413
0.146288
0.149702
0.153955
0.15777
0.160669
0.163142
0.165727
0.168753
0.172288
0.176055
0.179835
0.183879
0.189214
0.196757
0.203063
0.205819
0.202718