/*--------------------------------*- C++ -*----------------------------------*\
| =========                 |                                                 |
| \\      /  F ield         | OpenFOAM: The Open Source CFD Toolbox           |
|  \\    /   O peration     | Version:  2306                                  |
|   \\  /    A nd           | Website:  www.openfoam.com                      |
|    \\/     M anipulation  |                                                 |
\*---------------------------------------------------------------------------*/
FoamFile
{
    version     2.0;
    format      ascii;
    arch        "LSB;label=32;scalar=64";
    class       volScalarField;
    location    "0.09";
    object      T;
}
// * * * * * * * * * * * * * * * * * * * * * * * * * * * * * * * * * * * * * //

dimensions      [0 0 0 1 0 0 0];

internalField   nonuniform List<scalar> 
6000
(
3814.7
2751.53
2145.51
2277.48
2413.27
2603.25
2784.82
2926.69
2981.31
2998.6
3019.83
3042.71
3059.69
3046.94
2867.48
2577.03
2546.89
2577.29
2633.31
2697.53
2760.15
2820.2
2879.35
2938.98
3000.17
3063.64
3130.37
3203.37
3286.94
3362.72
3398.02
3412.63
3356.19
3100.91
2948.95
2959.71
2996.66
3048.18
3096.68
3137.09
3173.48
3209.45
3246.6
3285.12
3324.21
3362.82
3401.64
3445.83
3507.6
3589.42
3635.01
3645.71
3600.6
3398.8
3270.43
3276.41
3302.47
3342.77
3382.45
3413.16
3438.87
3464.25
3491.51
3520.9
3551.09
3580.2
3607.64
3635.67
3670.3
3722.93
3787.48
3815.22
3821.12
3777.12
3624.84
3541.42
3546.71
3566.65
3599.26
3635.33
3663.68
3685.79
3706.96
3730.3
3756.67
3784.66
3811.84
3838.05
3866.43
3902.97
3956.2
4011.11
4034.47
4044.43
4002.75
3878.99
3825.36
3837.15
3863.22
3899.18
3937.15
3965.11
3983.71
3997.89
4009.53
4018.92
4025.14
4026.85
4022.81
4012.31
4000.37
3993.9
3995.76
3991.32
3949.13
3877.19
3752.04
3627.7
3574.56
3544.35
3526.85
3518.7
3506.38
3482.73
3452.83
3423.16
3396.48
3373.11
3350.6
3327.01
3304.68
3289.37
3286.7
3269.58
3224.63
3145.41
3030.07
2947.05
2905.29
2869.16
2841.57
2810.28
2764.63
2707.65
2646.87
2585.92
2525.59
2465.4
2406.92
2352.31
2294.91
2216.36
2122.02
2010.29
1919.58
1860.68
1813.12
1774.56
1730.52
1675.95
1616.12
1555.74
1496.53
1436.49
1362.75
1251.7
1112.06
957.341
821.25
703.32
605.773
529.211
475.04
434.003
406.887
388.826
380.446
377.418
377.237
374.079
369.007
363.596
360.731
359.547
359.988
359.886
358.448
356.296
354.776
354.406
354.623
355.271
355.234
354.783
354.037
353.573
353.447
353.456
353.401
353.213
352.897
352.617
352.532
352.51
352.561
352.542
352.446
352.291
352.182
352.119
352.082
352.033
351.925
351.787
351.624
351.455
351.307
351.182
351.071
350.97
350.899
350.883
350.917
351.016
351.08
351.12
351.14
351.122
351.029
350.886
350.734
350.628
350.519
350.427
350.363
350.332
350.331
350.333
350.33
350.328
350.313
350.287
350.246
350.179
350.102
350.029
349.964
349.9
349.846
349.827
349.825
349.825
349.82
349.815
349.799
349.772
349.74
349.711
349.692
349.677
349.659
349.637
349.603
349.563
349.525
349.486
349.442
349.392
349.344
349.305
349.273
349.25
349.222
349.201
349.194
349.195
349.2
349.197
349.188
349.177
349.156
349.12
349.069
349.02
348.993
348.986
348.985
348.985
348.982
348.972
348.947
348.911
348.865
348.816
348.776
348.753
348.737
348.724
348.719
348.748
3814.49
2563.78
2137.14
2271.19
2413.12
2607.56
2790.52
2930.24
2983.53
3000.67
3021.58
3043.94
3059.54
3043.34
2857.58
2571.51
2545.17
2575.78
2631.73
2695.79
2758.38
2818.62
2878.1
2938.19
2999.95
3064.25
3132.07
3205.85
3289.27
3363.81
3398.49
3413.1
3355.1
3098.14
2948.08
2959.19
2996.37
3047.98
3096.51
3136.92
3173.26
3209.14
3246.14
3284.45
3323.34
3361.78
3400.56
3444.74
3506.27
3588.19
3634.47
3645.43
3600.58
3399.56
3270.84
3276.75
3302.79
3343.14
3382.91
3413.65
3439.29
3464.58
3491.79
3521.15
3551.31
3580.37
3607.74
3635.69
3670.21
3722.7
3787.18
3814.98
3820.99
3777.18
3625.15
3542.25
3547.73
3567.86
3600.64
3636.84
3665.27
3687.4
3708.59
3731.94
3758.29
3786.21
3813.31
3839.45
3867.78
3904.29
3957.48
4012.04
4035.12
4044.75
4002.89
3879.85
3827.19
3839.17
3865.48
3901.73
3940.01
3968.16
3986.86
4001.04
4012.59
4021.77
4027.66
4029.08
4024.85
4014.16
4002
3995.21
3996.67
3991.21
3948.52
3876.04
3750.99
3627.34
3574.38
3543.91
3526.05
3517.41
3504.52
3480.28
3449.99
3420.07
3393.15
3369.55
3346.84
3323.16
3301.16
3286.76
3285.34
3268.96
3224.05
3144.74
3029.72
2947.64
2906.29
2870.58
2843.16
2811.91
2766.33
2709.25
2648.28
2587.14
2526.67
2466.51
2408.24
2354.12
2297.91
2219.63
2125.49
2013.16
1921.34
1861.85
1813.61
1774.41
1729.9
1674.9
1614.53
1553.5
1493.54
1432.95
1358.81
1247.74
1108.7
955.413
820.683
704.013
607.322
531.405
477.462
436.24
408.851
390.408
381.599
378.338
378.388
375.161
369.698
363.761
360.505
359.218
359.611
359.792
358.598
356.547
354.864
354.42
354.525
355.159
355.207
354.817
354.113
353.608
353.459
353.432
353.37
353.194
352.902
352.622
352.528
352.498
352.545
352.537
352.448
352.301
352.192
352.126
352.086
352.036
351.928
351.792
351.631
351.462
351.312
351.188
351.079
350.98
350.913
350.896
350.929
351.022
351.083
351.118
351.135
351.115
351.023
350.885
350.736
350.631
350.525
350.436
350.373
350.339
350.335
350.334
350.328
350.322
350.304
350.275
350.232
350.165
350.091
350.022
349.961
349.903
349.851
349.824
349.816
349.809
349.799
349.791
349.774
349.747
349.717
349.693
349.68
349.671
349.658
349.638
349.606
349.566
349.529
349.491
349.449
349.4
349.351
349.31
349.277
349.253
349.227
349.208
349.202
349.204
349.21
349.208
349.2
349.19
349.169
349.133
349.082
349.032
349.003
348.995
348.994
348.994
348.992
348.983
348.958
348.923
348.877
348.828
348.79
348.769
348.755
348.746
348.743
348.771
3813.74
2664.16
2131.99
2267.07
2415.57
2613.53
2798.64
2936.35
2987.14
3003.9
3024.68
3046.46
3060.82
3040.11
2843.01
2562.89
2542.13
2573.27
2629.22
2692.93
2755.36
2815.8
2875.75
2936.44
2998.87
3064.04
3133.01
3208.22
3292.53
3366.42
3400.46
3414.95
3354
3093.4
2947.37
2959
2996.31
3047.73
3095.99
3136.29
3172.65
3208.62
3245.71
3284.04
3322.74
3360.84
3399.18
3442.85
3503.99
3586.23
3633.01
3644.11
3600.08
3400.51
3270.93
3276.61
3302.5
3342.84
3382.69
3413.5
3439.18
3464.5
3491.73
3521.1
3551.23
3580.17
3607.35
3635.11
3669.44
3721.73
3785.97
3813.55
3819.48
3775.39
3623.92
3542.52
3548.47
3569.05
3602.29
3638.77
3667.28
3689.43
3710.62
3733.98
3760.33
3788.16
3815.12
3841.1
3869.3
3905.74
3958.91
4013.04
4035.57
4045.02
4002.73
3880.48
3829.09
3841.38
3868.11
3905.03
3944.09
3972.69
3991.6
4005.86
4017.33
4026.26
4031.71
4032.73
4028.15
4017.09
4004.62
3997.5
3998.49
3991.29
3947.69
3874.39
3749.32
3626.92
3574.47
3543.77
3525.66
3516.47
3502.62
3477.32
3446.1
3415.31
3387.51
3363
3339.55
3315.68
3294.16
3280.9
3281.04
3265.76
3221.12
3141.9
3027.37
2946.39
2905.96
2871.39
2845.48
2815.4
2770.43
2713.85
2653.4
2592.67
2532.54
2472.8
2415.13
2362.1
2307.76
2230.38
2136.55
2022.86
1928.35
1866.73
1816.17
1774.56
1727.86
1670.9
1608.57
1545.64
1483.88
1421.51
1345.9
1234.72
1097.53
948.309
818.662
706.229
613.03
539.831
487.217
445.995
417.424
397.071
386.395
381.48
380.716
377.17
371.269
364.545
360.392
358.825
358.998
359.609
358.706
356.913
355.07
354.459
354.421
354.933
355.12
354.832
354.227
353.68
353.484
353.396
353.312
353.151
352.899
352.633
352.525
352.479
352.511
352.514
352.439
352.31
352.204
352.136
352.087
352.031
351.925
351.791
351.635
351.468
351.316
351.194
351.087
350.993
350.934
350.919
350.949
351.032
351.084
351.111
351.121
351.098
351.009
350.879
350.738
350.636
350.539
350.455
350.393
350.354
350.342
350.336
350.323
350.312
350.29
350.258
350.214
350.15
350.082
350.018
349.962
349.91
349.861
349.825
349.808
349.791
349.772
349.757
349.737
349.712
349.687
349.67
349.665
349.664
349.659
349.642
349.61
349.571
349.534
349.499
349.46
349.413
349.364
349.319
349.285
349.261
349.238
349.222
349.218
349.22
349.226
349.222
349.214
349.203
349.182
349.147
349.098
349.047
349.016
349.007
349.005
349.005
349.001
348.992
348.967
348.932
348.888
348.842
348.807
348.788
348.779
348.775
348.776
348.806
3812.63
2370.13
2144.87
2272.52
2420.16
2621.18
2808.31
2943.66
2991.21
3007.28
3027.94
3049.12
3062.36
3037.37
2828.14
2554.42
2539.65
2571.44
2627.41
2690.77
2753.02
2813.64
2874
2935.16
2997.99
3063.64
3133.94
3211.46
3297.28
3369.91
3402.56
3416.53
3351.6
3086.47
2946.36
2958.83
2996.45
3047.82
3095.81
3135.86
3172.06
3207.93
3244.94
3283.11
3321.59
3359.5
3397.56
3440.83
3501.53
3583.73
3630.81
3642.05
3599.03
3401.39
3271.05
3276.53
3302.22
3342.53
3382.47
3413.32
3439
3464.3
3491.54
3520.91
3550.97
3579.74
3606.67
3634.16
3668.26
3720.36
3784.11
3811.21
3817.06
3772.29
3621.16
3542.13
3548.56
3569.6
3603.29
3640.01
3668.55
3690.72
3711.97
3735.39
3761.77
3789.59
3816.41
3842.13
3870.06
3906.39
3959.6
4013.52
4035.94
4045.29
4002.8
3881.41
3831.48
3844.14
3871.36
3908.96
3948.67
3977.6
3996.69
4011.04
4022.41
4030.98
4035.83
4036.28
4031.19
4019.64
4006.83
3999.47
4000.31
3991.75
3947.43
3872.94
3747.3
3626.12
3574.26
3543.32
3525.02
3515.32
3500.48
3473.82
3441.25
3409.13
3379.93
3354.19
3330.13
3306.34
3285.31
3272.7
3273.39
3258.6
3214.24
3135.46
3021.97
2942.96
2904.18
2871.37
2847.68
2819.64
2775.9
2720.61
2661.73
2602.53
2543.91
2485.7
2429.67
2378.6
2326.94
2250.74
2157.07
2041.05
1941.75
1876.12
1821.03
1774.64
1723.43
1662.18
1595.7
1528.95
1463.97
1399.1
1321.66
1211.24
1078.4
937.243
817.095
713.293
627.617
559.977
510.291
469.016
437.382
412.331
396.772
387.517
384.25
379.55
372.882
365.494
360.387
358.55
358.445
359.311
358.752
357.212
355.302
354.466
354.321
354.699
355.029
354.824
354.325
353.747
353.473
353.347
353.25
353.102
352.896
352.647
352.518
352.456
352.466
352.481
352.42
352.316
352.214
352.144
352.088
352.027
351.923
351.793
351.641
351.473
351.32
351.201
351.099
351.012
350.963
350.95
350.978
351.048
351.088
351.105
351.107
351.077
350.99
350.872
350.741
350.64
350.553
350.476
350.416
350.374
350.351
350.337
350.317
350.298
350.272
350.238
350.194
350.136
350.076
350.019
349.968
349.922
349.875
349.833
349.8
349.77
349.737
349.713
349.69
349.667
349.649
349.644
349.649
349.659
349.663
349.653
349.624
349.585
349.549
349.514
349.476
349.43
349.379
349.331
349.295
349.272
349.253
349.241
349.239
349.243
349.248
349.243
349.235
349.222
349.199
349.164
349.116
349.066
349.033
349.022
349.02
349.018
349.013
349.004
348.981
348.95
348.912
348.872
348.839
348.822
348.817
348.816
348.82
348.849
3811.48
2703.72
2155.8
2286.5
2430.81
2628.8
2814.49
2948.83
2995.01
3011
3031.82
3053.14
3065.84
3036.76
2815.54
2547.38
2537.36
2570.17
2626.31
2689.49
2751.59
2812.26
2872.89
2934.37
2997.51
3063.83
3135.65
3215.64
3302.68
3373.3
3404.35
3417.94
3348.29
3078.46
2945.02
2958.23
2996.15
3047.41
3095.15
3135.07
3171.24
3207.13
3244.15
3282.3
3320.75
3358.51
3396.33
3439.29
3499.57
3581.36
3628.28
3639.47
3597.26
3401.59
3271.01
3276.36
3301.82
3342.03
3381.97
3412.82
3438.44
3463.72
3490.96
3520.35
3550.4
3579.05
3605.76
3632.99
3666.93
3718.96
3781.88
3807.89
3813.42
3767.33
3616.17
3540.18
3547.25
3568.73
3602.85
3639.81
3668.48
3690.84
3712.34
3736.05
3762.69
3790.72
3817.69
3843.5
3871.4
3907.65
3960.76
4014.28
4036.35
4045.51
4002.53
3881.62
3833.27
3846.29
3873.91
3911.93
3952.08
3981.49
4001.08
4015.93
4027.76
4036.52
4041.27
4041.2
4035.19
4022.73
4009.33
4001.67
4002.41
3992.52
3947.61
3871.93
3745.21
3625.58
3574.75
3543.7
3525.33
3515.22
3499.38
3471.35
3437.62
3404.44
3374.11
3347.2
3322
3297.2
3275.3
3262.08
3262.73
3247.99
3203.51
3124.9
3012.63
2936.24
2899.69
2869.43
2848.42
2822.53
2780.41
2727.03
2670.73
2614.21
2558.17
2502.66
2449.44
2401.29
2352.92
2278.02
2184.14
2065.13
1959.49
1888.09
1826.56
1773.47
1715.64
1647.95
1575.44
1503.59
1434.81
1367.68
1289.32
1182.02
1057.08
928.859
821.025
730.16
655.668
595.663
549.211
506.963
469.403
436.379
412.386
396.053
388.119
381.816
374.054
366.343
360.499
358.433
358.033
358.956
358.694
357.374
355.493
354.47
354.249
354.525
354.953
354.814
354.375
353.782
353.438
353.29
353.196
353.063
352.894
352.66
352.502
352.429
352.419
352.439
352.399
352.312
352.217
352.145
352.082
352.018
351.919
351.792
351.645
351.476
351.323
351.207
351.112
351.037
350.997
350.989
351.015
351.071
351.096
351.1
351.09
351.048
350.962
350.855
350.739
350.644
350.569
350.501
350.442
350.396
350.363
350.339
350.313
350.284
350.252
350.217
350.176
350.127
350.077
350.028
349.983
349.941
349.896
349.848
349.799
349.75
349.702
349.67
349.643
349.623
349.614
349.618
349.634
349.656
349.67
349.665
349.641
349.604
349.568
349.532
349.495
349.45
349.397
349.344
349.306
349.284
349.269
349.26
349.261
349.268
349.271
349.266
349.257
349.242
349.217
349.182
349.136
349.087
349.052
349.038
349.034
349.03
349.024
349.014
348.996
348.97
348.941
348.91
348.883
348.868
348.865
348.865
348.87
348.895
3810.39
2775.69
2169.47
2294.51
2437.09
2632.07
2816.77
2952.04
2999.11
3015.57
3036.77
3058.87
3071.74
3039.16
2808.01
2543.47
2536.71
2570.35
2626.78
2689.75
2751.55
2812.07
2872.66
2934.2
2997.6
3064.64
3138.16
3220.36
3307.58
3375.51
3405.32
3418.34
3344.24
3071.35
2944.18
2957.94
2996.03
3047.12
3094.6
3134.38
3170.52
3206.47
3243.58
3281.87
3320.41
3358.15
3395.88
3438.72
3498.49
3579.49
3625.76
3636.74
3594.95
3400.92
3270.76
3276.08
3301.35
3341.4
3381.28
3412.07
3437.6
3462.78
3489.97
3519.35
3549.4
3577.99
3604.58
3631.67
3665.54
3717.69
3779.52
3803.88
3808.86
3760.55
3608.82
3536.46
3543.98
3565.91
3600.45
3637.51
3666.12
3688.49
3710.03
3733.82
3760.59
3788.81
3816.1
3842.35
3870.73
3907.4
3960.74
4014.04
4035.99
4045.09
4001.47
3880.76
3833.84
3847.08
3874.92
3913
3953.18
3982.75
4002.65
4017.95
4030.45
4040.22
4045.94
4046.47
4040.67
4027.88
4013.92
4005.8
4006.39
3994.65
3948.7
3871.69
3743.31
3624.89
3574.99
3543.81
3525.44
3514.92
3498.3
3469.68
3435.65
3402.11
3371.3
3343.68
3317.26
3290.76
3266.87
3251.89
3251.53
3235.96
3190.43
3111.14
2999.66
2925.79
2891.69
2864.37
2846.63
2823.01
2782.16
2730.5
2676.77
2623.27
2570.41
2518.33
2468.69
2424.03
2378.72
2305.51
2211.16
2089.01
1976.87
1898.86
1830.45
1770
1704.54
1629.28
1549.88
1472.69
1400.73
1332.74
1255.52
1154.58
1040.54
927.276
834.944
759.299
697.114
644.09
598.823
553.761
507.399
463.979
429.299
404.658
391.11
383.135
374.532
366.941
360.687
358.33
357.723
358.559
358.539
357.421
355.64
354.5
354.223
354.413
354.865
354.774
354.367
353.779
353.39
353.236
353.153
353.039
352.89
352.67
352.489
352.408
352.38
352.403
352.382
352.305
352.212
352.139
352.07
352.006
351.912
351.788
351.644
351.476
351.325
351.215
351.125
351.066
351.034
351.033
351.058
351.097
351.106
351.096
351.068
351.009
350.925
350.826
350.73
350.648
350.585
350.526
350.471
350.424
350.382
350.347
350.312
350.275
350.239
350.204
350.168
350.128
350.086
350.044
350.005
349.966
349.922
349.867
349.804
349.739
349.676
349.635
349.606
349.589
349.586
349.596
349.622
349.655
349.677
349.678
349.66
349.626
349.591
349.556
349.518
349.474
349.42
349.362
349.32
349.298
349.287
349.283
349.287
349.295
349.296
349.292
349.282
349.263
349.235
349.198
349.153
349.107
349.072
349.054
349.047
349.042
349.034
349.024
349.011
348.992
348.972
348.95
348.931
348.918
348.915
348.914
348.915
348.927
3810.46
2809.62
2173.42
2296.23
2438.25
2632.41
2816.44
2953.76
3003.04
3019.98
3041.3
3064.35
3078.11
3044.29
2807.27
2542.99
2537.65
2571.97
2628.79
2691.59
2753.04
2813.31
2873.79
2935.43
2999.26
3067.14
3141.85
3225
3311.42
3376.66
3404.78
3417.37
3340.33
3066.67
2944.27
2958.31
2996.46
3047.35
3094.57
3134.21
3170.32
3206.32
3243.6
3282.12
3320.89
3358.78
3396.48
3438.93
3498.24
3578.16
3623.34
3633.92
3591.98
3399.07
3270.07
3275.43
3300.56
3340.44
3380.26
3411.02
3436.47
3461.55
3488.66
3517.98
3547.98
3576.53
3603.05
3630.13
3664.13
3716.58
3777.15
3799.69
3803.79
3752.2
3599.23
3531.08
3539.07
3561.28
3595.94
3632.84
3661.27
3683.59
3705.2
3729.1
3756
3784.4
3811.98
3838.68
3867.72
3905.16
3959.1
4012.3
4034.24
4043.43
3998.86
3877.92
3832.29
3845.62
3873.5
3911.43
3951.4
3981
4001.13
4016.84
4029.99
4040.72
4047.72
4049.59
4044.98
4033.33
4020.01
4012.13
4012.43
3998.53
3951.47
3872.86
3742.5
3625.08
3576.01
3544.77
3526.46
3515.67
3498.56
3469.63
3435.47
3401.85
3371.05
3343.18
3316.13
3288.33
3262.33
3244.71
3241.93
3224.41
3177.02
3095.86
2983.95
2911.58
2879.48
2854.81
2840.27
2819.35
2780.24
2730.08
2678.12
2626.91
2577.05
2528.49
2482.43
2440.96
2398.3
2326.63
2231.95
2107.18
1989.68
1906.22
1831.91
1764.87
1692.08
1609.23
1523.15
1441.14
1367.07
1300
1225.97
1133.56
1031.31
932.944
856.996
795.514
743.333
694.263
646.952
597.071
541.028
487.306
442.599
410.794
392.611
383.428
374.569
367.242
360.869
358.21
357.461
358.157
358.34
357.413
355.762
354.549
354.221
354.329
354.757
354.705
354.326
353.751
353.342
353.187
353.114
353.022
352.887
352.68
352.488
352.403
352.362
352.382
352.371
352.298
352.201
352.122
352.051
351.988
351.9
351.777
351.636
351.472
351.328
351.224
351.143
351.097
351.075
351.079
351.102
351.122
351.116
351.088
351.038
350.966
350.88
350.788
350.713
350.656
350.606
350.559
350.51
350.46
350.411
350.363
350.317
350.275
350.233
350.198
350.167
350.137
350.104
350.071
350.038
350.001
349.955
349.894
349.819
349.736
349.662
349.613
349.582
349.569
349.57
349.585
349.617
349.655
349.683
349.69
349.679
349.652
349.617
349.582
349.544
349.499
349.444
349.383
349.337
349.314
349.306
349.305
349.311
349.319
349.319
349.316
349.305
349.282
349.251
349.212
349.169
349.126
349.09
349.068
349.056
349.049
349.04
349.03
349.019
349.008
348.996
348.985
348.974
348.965
348.961
348.957
348.952
348.95
3810.75
2846.55
2177.92
2298.4
2437.84
2630.7
2814.11
2954.17
3006.79
3024.21
3045.39
3068.74
3082.99
3050.33
2813.56
2546.13
2540.6
2575.35
2632.59
2695.37
2756.49
2816.37
2876.62
2938.35
3002.6
3071.11
3146.24
3229.1
3313.93
3376.86
3403.7
3415.89
3337.23
3063.95
2944.68
2958.95
2997.15
3047.86
3094.84
3134.31
3170.34
3206.4
3243.84
3282.54
3321.47
3359.46
3397.15
3439.46
3498.31
3577.05
3621.04
3631.1
3588.54
3395.97
3268.85
3274.26
3299.3
3339.05
3378.83
3409.61
3435.06
3460.1
3487.14
3516.37
3546.26
3574.7
3601.14
3628.25
3662.56
3715.45
3774.43
3795.45
3798.63
3742.69
3588.12
3524.41
3532.75
3555.25
3589.95
3626.64
3654.87
3677.21
3698.95
3723.04
3750.18
3778.82
3806.61
3833.51
3862.82
3900.8
3955.47
4008.8
4030.38
4039.06
3992.94
3871.48
3827.15
3840.35
3867.89
3905.3
3944.9
3974.59
3995.12
4011.48
4025.61
4037.61
4046.43
4050.01
4047.07
4037.63
4026.34
4020.12
4021.13
4005.82
3958.22
3877.56
3744.36
3627.96
3579.87
3548.56
3530.19
3518.98
3501.27
3472.02
3437.8
3404.21
3373.13
3344.85
3317.33
3288.81
3261.44
3241.81
3236.04
3215.78
3165.64
3081.46
2967.42
2894.31
2862.88
2840.09
2828.08
2810.08
2773.85
2726.41
2676.76
2627.54
2579.88
2533.5
2489.3
2449.72
2409.02
2338.62
2243.96
2117.65
1996.88
1910
1831.87
1760.03
1681.58
1592.44
1500.46
1414.11
1338.25
1272.79
1202.9
1118.77
1027.06
942.216
878.429
826.546
780.064
731.922
681.07
625.896
562.576
501.071
449.752
413.616
392.872
383.202
374.505
367.384
360.994
358.081
357.234
357.82
358.19
357.395
355.858
354.578
354.207
354.245
354.636
354.615
354.261
353.71
353.294
353.139
353.069
352.997
352.876
352.69
352.498
352.408
352.363
352.375
352.354
352.275
352.171
352.091
352.02
351.959
351.877
351.758
351.622
351.467
351.334
351.237
351.169
351.131
351.118
351.126
351.141
351.144
351.123
351.077
351.004
350.923
350.832
350.748
350.695
350.663
350.631
350.594
350.553
350.504
350.447
350.389
350.332
350.282
350.239
350.202
350.176
350.155
350.134
350.111
350.083
350.043
349.993
349.928
349.843
349.744
349.661
349.606
349.574
349.564
349.567
349.584
349.618
349.659
349.692
349.703
349.699
349.681
349.649
349.614
349.575
349.527
349.471
349.409
349.358
349.33
349.323
349.324
349.331
349.337
349.338
349.335
349.322
349.297
349.263
349.223
349.181
349.14
349.104
349.077
349.061
349.052
349.042
349.032
349.023
349.017
349.013
349.009
349.005
349
348.997
348.99
348.979
348.963
3811.76
2841.48
2176.87
2299.71
2436.2
2628.64
2811.44
2954.15
3009.87
3027.51
3048.22
3071.54
3086.26
3055.67
2822.1
2550.66
2544.04
2579.07
2636.8
2699.76
2760.75
2820.36
2880.43
2942.15
3006.61
3075.37
3150.43
3232.65
3315.99
3377.03
3402.93
3414.72
3335.04
3062.27
2945.11
2959.59
2997.9
3048.61
3095.58
3135.04
3171.11
3207.19
3244.59
3283.23
3322.12
3360.14
3397.82
3440.06
3498.67
3576.39
3619.12
3628.6
3585.08
3392.18
3267.23
3272.75
3297.77
3337.44
3377.2
3408
3433.45
3458.46
3485.44
3514.58
3544.37
3572.7
3599.09
3626.28
3661
3714.5
3772.17
3791.82
3793.92
3733.11
3576.83
3517.73
3526.35
3549.06
3583.88
3620.3
3648.14
3670.23
3691.89
3715.99
3743.23
3771.99
3799.92
3826.97
3856.43
3894.67
3949.45
4002.02
4022.7
4030.65
3982.34
3860.16
3817.52
3830.51
3857.51
3894.28
3933.56
3963.42
3984.42
4001.55
4016.9
4030.75
4042.18
4048.18
4047.54
4041.25
4033.02
4029.84
4032.81
4017.52
3970.13
3887.88
3751.39
3635.86
3588.83
3557.46
3538.79
3526.8
3508.25
3478.38
3443.68
3409.67
3378.35
3349.69
3321.43
3291.95
3263.45
3242.22
3233.96
3210.9
3157.54
3069.58
2952.18
2876.22
2843.65
2821.01
2810.25
2794.1
2761.07
2717.78
2671.88
2625.73
2580.14
2534.93
2491.6
2452.71
2412.57
2342.74
2248.43
2122.08
2000.32
1911.78
1831.57
1756.85
1675.27
1582.62
1486.41
1395.77
1317.07
1251.73
1184.79
1107.22
1023.69
947.218
889.825
842.747
798.731
750.545
697.19
638.563
571.485
506.239
452.106
414.308
392.658
382.868
374.396
367.414
361.032
357.968
357.083
357.625
358.118
357.391
355.907
354.571
354.155
354.147
354.514
354.528
354.201
353.671
353.247
353.089
353.017
352.961
352.851
352.693
352.515
352.422
352.373
352.376
352.334
352.242
352.132
352.05
351.981
351.922
351.844
351.731
351.603
351.463
351.346
351.259
351.204
351.173
351.165
351.171
351.174
351.163
351.127
351.061
350.976
350.884
350.788
350.714
350.682
350.667
350.654
350.631
350.597
350.55
350.49
350.422
350.357
350.302
350.258
350.221
350.201
350.19
350.18
350.163
350.136
350.093
350.036
349.964
349.874
349.767
349.673
349.61
349.575
349.568
349.573
349.592
349.627
349.669
349.703
349.719
349.719
349.708
349.683
349.647
349.607
349.558
349.5
349.436
349.38
349.348
349.34
349.34
349.344
349.348
349.349
349.344
349.33
349.303
349.269
349.231
349.19
349.149
349.11
349.077
349.057
349.046
349.036
349.026
349.02
349.017
349.018
349.02
349.022
349.022
349.021
349.013
348.998
348.968
3810.95
2486.76
2191.26
2301.81
2439.04
2630.32
2810.14
2953.68
3011.88
3030.17
3050.76
3073.92
3088.65
3059.35
2827.26
2553.1
2546.15
2581.55
2639.7
2702.88
2763.92
2823.51
2883.44
2944.97
3009.39
3078.2
3153.32
3235.42
3318.39
3378.22
3403.12
3414.27
3333.57
3061.05
2945.53
2960.16
2998.6
3049.35
3096.32
3135.78
3171.84
3207.89
3245.27
3283.9
3322.76
3360.69
3398.35
3440.61
3499.23
3576.28
3617.79
3626.69
3581.9
3388.15
3265.55
3271.19
3296.29
3335.9
3375.61
3406.36
3431.75
3456.67
3483.52
3512.53
3542.2
3570.43
3596.78
3624.11
3659.41
3713.97
3770.72
3788.97
3789.96
3724.07
3566.19
3511.59
3520.53
3543.6
3578.48
3614.5
3641.87
3663.61
3684.97
3708.77
3735.67
3764.07
3791.66
3818.45
3847.71
3885.82
3940.22
3991.48
4011.04
4018.02
3967.32
3844.68
3804.15
3817.15
3843.89
3880.35
3919.51
3949.57
3971.07
3989.04
4005.83
4021.9
4036.2
4045.46
4047.75
4044.88
4040.59
4041.6
4048.22
4033.43
3987.16
3904.56
3765.31
3650.66
3604.82
3573.41
3554.19
3541.16
3521.44
3490.65
3455.01
3419.89
3387.57
3357.98
3328.68
3297.87
3267.72
3244.46
3233.82
3208.47
3152.08
3060.48
2938.73
2858.31
2823.1
2798.73
2786.99
2771.23
2740.89
2701.71
2660.35
2618.17
2575.58
2532.52
2490.62
2452.39
2411.97
2342.13
2248.31
2122.85
2001.55
1912.56
1831.41
1755.68
1672.72
1578.14
1479.98
1386.7
1304.45
1236.35
1169.07
1094.58
1016.69
946.145
892.056
847.058
803.766
755.197
700.915
640.946
572.991
507.088
452.542
414.381
392.44
382.514
374.138
367.283
360.982
357.918
357.038
357.555
358.054
357.349
355.889
354.532
354.09
354.062
354.423
354.459
354.148
353.628
353.201
353.04
352.968
352.922
352.821
352.685
352.528
352.442
352.395
352.383
352.321
352.212
352.091
352.005
351.937
351.883
351.811
351.704
351.587
351.465
351.367
351.294
351.25
351.226
351.218
351.213
351.2
351.174
351.128
351.048
350.953
350.854
350.76
350.696
350.676
350.672
350.674
350.666
350.637
350.596
350.538
350.468
350.396
350.335
350.291
350.256
350.242
350.237
350.233
350.219
350.191
350.145
350.08
350.003
349.909
349.802
349.704
349.632
349.592
349.588
349.593
349.613
349.647
349.687
349.721
349.738
349.74
349.732
349.713
349.679
349.639
349.589
349.531
349.466
349.406
349.369
349.356
349.354
349.355
349.357
349.354
349.346
349.33
349.303
349.27
349.233
349.193
349.15
349.106
349.066
349.041
349.028
349.019
349.012
349.009
349.012
349.018
349.027
349.033
349.035
349.034
349.023
349.003
348.961
3813.03
2357.79
2165.56
2297.64
2441.43
2631.94
2810.74
2954.29
3013.04
3031.81
3052.28
3075.4
3089.87
3060.18
2826.65
2553.02
2546.77
2582.53
2640.85
2704.13
2765.29
2824.91
2884.86
2946.47
3010.92
3079.69
3154.71
3237.14
3320.46
3379.89
3404.24
3414.83
3333.14
3060.21
2946
2960.81
2999.44
3050.29
3097.29
3136.71
3172.68
3208.58
3245.77
3284.23
3322.97
3360.86
3398.56
3441
3499.8
3576.42
3617.01
3625.4
3579.12
3384.13
3264.09
3269.85
3295
3334.56
3374.13
3404.74
3430
3454.75
3481.4
3510.18
3539.59
3567.61
3593.95
3621.55
3657.7
3713.62
3770.1
3787.24
3787.21
3716.65
3557.56
3507.04
3516.27
3539.62
3574.63
3610.25
3637.05
3658.33
3679.26
3702.58
3728.86
3756.46
3783.06
3808.77
3837.04
3874.42
3928.3
3978.11
3996.37
4002.08
3949.11
3827.22
3789.39
3802.44
3828.95
3865.32
3904.72
3935.25
3957.38
3976.27
3994.31
4012.11
4028.75
4041.28
4047.4
4048.81
4049.56
4055.91
4066.07
4052.48
4008.64
3927.2
3786.49
3672.97
3628.49
3597.27
3577.46
3563.32
3542.34
3510.16
3472.95
3436.12
3401.9
3370.35
3339.09
3306.19
3273.71
3248.06
3234.88
3207.74
3148.74
3054.18
2927.97
2841.68
2802.58
2774.89
2760.4
2743.53
2714.42
2677.61
2639.19
2600.61
2561.59
2521.72
2482.37
2445.79
2405.78
2336.34
2243.47
2119.62
2000.25
1912.04
1831.18
1755.72
1672.39
1577.1
1478.46
1384.28
1299.58
1226.45
1153.81
1076.2
999.316
933.462
882.905
839.888
797.896
750.317
696.83
637.566
570.457
505.682
452.108
414.166
392.23
382.132
373.655
366.883
360.775
357.875
357.028
357.535
357.946
357.22
355.765
354.46
354.045
354.039
354.392
354.4
354.081
353.567
353.152
352.997
352.93
352.888
352.794
352.67
352.531
352.457
352.421
352.397
352.321
352.195
352.055
351.958
351.888
351.836
351.776
351.682
351.578
351.478
351.397
351.343
351.311
351.292
351.273
351.249
351.221
351.182
351.124
351.038
350.936
350.837
350.754
350.695
350.677
350.682
350.693
350.695
350.675
350.637
350.587
350.518
350.444
350.38
350.333
350.298
350.286
350.285
350.284
350.272
350.243
350.195
350.125
350.044
349.95
349.846
349.749
349.675
349.633
349.627
349.631
349.647
349.677
349.711
349.742
349.758
349.759
349.753
349.736
349.705
349.665
349.617
349.559
349.495
349.434
349.392
349.374
349.368
349.366
349.364
349.357
349.346
349.328
349.302
349.27
349.234
349.193
349.148
349.098
349.052
349.021
349.006
348.996
348.991
348.991
349
349.015
349.028
349.033
349.033
349.03
349.015
348.993
348.945
3814.17
2785.77
2140.12
2287.9
2443.01
2632.76
2811.74
2955.17
3012.86
3031.95
3052.06
3074.85
3088.88
3057.49
2821.14
2550.7
2545.96
2582.07
2640.53
2704.02
2765.39
2825.22
2885.32
2946.96
3011.32
3080
3155.1
3237.71
3321.3
3380.78
3404.72
3415.51
3333.18
3059.68
2946.34
2961.34
3000.15
3051.13
3098.13
3137.48
3173.29
3208.97
3245.93
3284.19
3322.84
3360.69
3398.46
3441.17
3500.49
3576.9
3616.6
3624.75
3576.85
3380.36
3262.84
3268.83
3294
3333.4
3372.74
3403.15
3428.23
3452.77
3479.14
3507.59
3536.66
3564.39
3590.63
3618.54
3655.57
3712.94
3769.85
3786.59
3785.93
3711.57
3551.72
3504.89
3514.31
3537.8
3572.9
3607.8
3633.6
3654.17
3674.58
3697.32
3722.8
3749.34
3774.75
3799.24
3826.31
3862.86
3916.13
3964.08
3981.2
3985.66
3930.35
3809.62
3774.1
3787.04
3813.12
3849.32
3888.81
3919.58
3942.27
3962.2
3981.91
4001.95
4021.22
4036.9
4046.89
4052.89
4058.86
4070.92
4084.99
4073.71
4033.5
3954.61
3813.96
3701.98
3659.36
3628.83
3608.87
3593.92
3571.77
3537.97
3498.63
3459.28
3422.34
3387.98
3353.78
3317.93
3282.37
3253.49
3236.94
3207.87
3146.73
3049.74
2919.35
2826.94
2783.5
2751.77
2733.61
2714.1
2683.48
2646.13
2608.14
2571
2534.21
2497
2460.52
2426.69
2388.48
2320.4
2229.37
2108.84
1994.15
1908.94
1830.18
1756.37
1674.33
1579.91
1481.58
1386.73
1300.17
1222.34
1140.09
1051.46
967.208
899.689
850.246
810.31
772.2
729.318
680.48
624.75
561.043
499.85
449.319
412.972
391.935
381.699
373.003
366.269
360.405
357.812
357.051
357.585
357.799
356.987
355.502
354.346
353.994
354.038
354.386
354.337
353.987
353.468
353.09
352.953
352.899
352.857
352.768
352.644
352.522
352.459
352.443
352.422
352.339
352.196
352.033
351.921
351.842
351.788
351.74
351.669
351.582
351.502
351.441
351.405
351.387
351.361
351.328
351.286
351.24
351.188
351.117
351.028
350.927
350.836
350.765
350.712
350.692
350.699
350.715
350.724
350.71
350.678
350.635
350.575
350.503
350.436
350.385
350.349
350.335
350.332
350.33
350.316
350.285
350.236
350.165
350.086
349.997
349.899
349.803
349.728
349.685
349.677
349.679
349.69
349.711
349.737
349.762
349.776
349.776
349.77
349.754
349.725
349.688
349.642
349.586
349.523
349.462
349.417
349.393
349.382
349.374
349.366
349.356
349.343
349.324
349.299
349.269
349.234
349.194
349.146
349.091
349.039
349.002
348.984
348.974
348.968
348.97
348.98
348.999
349.016
349.021
349.02
349.015
348.998
348.971
348.916
3813.05
2746.66
2149.6
2290.98
2440.37
2631.43
2813.61
2956.01
3011.3
3030.25
3050.27
3072.4
3085.52
3052.7
2813.88
2547.2
2543.68
2579.88
2638.37
2702.17
2763.87
2823.97
2884.28
2946.03
3010.27
3078.76
3153.71
3236.53
3321.01
3381.25
3405.17
3415.46
3332.69
3058.58
2945.61
2960.89
2999.9
3050.93
3097.86
3137.15
3172.92
3208.61
3245.62
3283.89
3322.39
3360.14
3398.02
3441.07
3501.11
3577.65
3616.54
3624.63
3575.21
3377.18
3261.85
3268
3293.19
3332.42
3371.41
3401.51
3426.34
3450.67
3476.78
3504.92
3533.71
3561.27
3587.51
3615.68
3653.49
3712.2
3769.68
3786.54
3785.49
3708.07
3547.89
3504.41
3514.1
3538.02
3573.24
3607.41
3632.25
3652
3671.64
3693.52
3717.99
3743.38
3767.63
3791.05
3817.15
3853.01
3905.7
3951.98
3967.94
3971.17
3913.52