/*--------------------------------*- C++ -*----------------------------------*\
| =========                 |                                                 |
| \\      /  F ield         | OpenFOAM: The Open Source CFD Toolbox           |
|  \\    /   O peration     | Version:  2306                                  |
|   \\  /    A nd           | Website:  www.openfoam.com                      |
|    \\/     M anipulation  |                                                 |
\*---------------------------------------------------------------------------*/
FoamFile
{
    version     2.0;
    format      ascii;
    arch        "LSB;label=32;scalar=64";
    class       volVectorField;
    location    "0.09";
    object      U;
}
// * * * * * * * * * * * * * * * * * * * * * * * * * * * * * * * * * * * * * //

dimensions      [0 1 -1 0 0 0 0];

internalField   nonuniform List<vector> 
6000
(
(500 -3.60196e-14 0)
(500 -3.13654e-14 0)
(500 2.54096e-14 0)
(500 1.23965e-13 0)
(500 5.11912e-14 0)
(500 1.14146e-15 0)
(500 7.25415e-15 0)
(500 4.79486e-14 0)
(500 6.89099e-14 0)
(500 1.06167e-13 0)
(500 7.93392e-14 0)
(500 1.85538e-14 0)
(500 4.21153e-14 0)
(500 1.28133e-13 0)
(500 7.80332e-14 0)
(500 5.05837e-14 0)
(500 1.15605e-13 0)
(500 1.34133e-13 0)
(500 8.16186e-15 0)
(500 1.40099e-14 0)
(500 4.66336e-14 0)
(500 2.75651e-14 0)
(500 -4.90808e-14 0)
(500 -1.09177e-13 0)
(500 -1.44631e-13 0)
(500 -8.35462e-14 0)
(500 -1.46873e-13 0)
(500 -1.8497e-13 0)
(500 -2.04191e-13 0)
(500 4.84179e-13 0)
(500 -4.10922e-12 0)
(500 2.14673e-11 0)
(500 -6.89272e-11 0)
(500 1.97621e-10 0)
(500 4.44155e-11 0)
(500 -1.6594e-09 0)
(500 8.25032e-09 0)
(500 -4.87009e-09 0)
(500 -3.92747e-08 0)
(500 3.30087e-07 0)
(499.999 -6.67775e-07 0)
(499.996 4.79244e-07 0)
(499.989 7.62815e-06 0)
(499.973 -3.1312e-05 0)
(499.936 9.56263e-05 0)
(499.859 -0.000116989 0)
(499.715 7.5774e-05 0)
(499.497 0.000242107 0)
(499.288 -0.000191013 0)
(499.217 4.07779e-05 0)
(499.22 8.64346e-05 0)
(499.254 9.54604e-05 0)
(499.356 0.000379336 0)
(499.559 -0.000165311 0)
(499.869 -0.000909394 0)
(500.269 0.00241226 0)
(500.73 0.00117589 0)
(501.224 -0.00486754 0)
(501.724 0.000395716 0)
(502.204 0.00875252 0)
(502.66 -0.000214552 0)
(503.086 -0.00859264 0)
(503.467 0.000880581 0)
(503.789 0.0111222 0)
(504.062 0.00152292 0)
(504.291 -0.00789054 0)
(504.477 -0.00342029 0)
(504.618 0.0057375 0)
(504.729 0.00543713 0)
(504.826 -0.00185259 0)
(504.911 -0.00457251 0)
(504.986 -0.00183894 0)
(505.05 0.00286866 0)
(505.105 0.00322755 0)
(505.158 -0.000730595 0)
(505.208 -0.00284243 0)
(505.256 -0.00167307 0)
(505.292 0.00116475 0)
(505.31 0.00135616 0)
(505.314 3.21382e-05 0)
(505.314 -0.000769012 0)
(505.314 -0.000847296 0)
(505.312 -0.000391434 0)
(505.307 0.000186777 0)
(505.298 0.000363201 0)
(505.284 0.000231584 0)
(505.265 -0.000255167 0)
(505.244 -0.000829784 0)
(505.222 -0.0001862 0)
(505.201 0.000688085 0)
(505.183 0.000411647 0)
(505.169 -0.000329271 0)
(505.159 -0.000457701 0)
(505.15 -4.53322e-06 0)
(505.142 0.00030451 0)
(505.136 0.000203562 0)
(505.131 -6.11728e-05 0)
(505.126 -0.000161497 0)
(505.122 -0.00012889 0)
(505.119 1.1724e-05 0)
(505.116 0.000100887 0)
(505.113 7.37152e-05 0)
(505.111 6.9072e-06 0)
(505.11 -8.39022e-05 0)
(505.11 -0.00011269 0)
(505.11 -9.22904e-05 0)
(505.11 -4.93146e-05 0)
(505.11 -5.11139e-06 0)
(505.112 2.73696e-05 0)
(505.114 4.13849e-05 0)
(505.119 4.09752e-05 0)
(505.125 3.22432e-05 0)
(505.133 2.84112e-05 0)
(505.142 -2.26625e-07 0)
(505.152 -5.91558e-05 0)
(505.161 -6.68983e-06 0)
(505.17 9.50108e-05 0)
(505.178 6.28223e-05 0)
(505.185 -9.70173e-06 0)
(505.192 -4.30947e-05 0)
(505.198 -3.90254e-05 0)
(505.202 5.1077e-06 0)
(505.203 1.36731e-05 0)
(505.204 7.42936e-06 0)
(505.204 -2.60885e-05 0)
(505.204 -5.81003e-05 0)
(505.202 -5.93541e-05 0)
(505.2 -3.60134e-05 0)
(505.195 1.73382e-05 0)
(505.189 4.19355e-05 0)
(505.182 5.24822e-05 0)
(505.175 5.07849e-05 0)
(505.17 -1.38943e-06 0)
(505.165 -6.80887e-05 0)
(505.16 -8.6941e-05 0)
(505.157 -8.5224e-05 0)
(505.154 -3.96406e-05 0)
(505.15 2.54927e-05 0)
(505.148 6.23969e-05 0)
(505.146 7.28226e-05 0)
(505.144 6.12785e-05 0)
(505.142 1.6948e-05 0)
(505.14 1.64717e-05 0)
(505.138 3.47165e-05 0)
(505.134 4.02768e-05 0)
(505.13 3.40728e-05 0)
(505.125 2.11514e-05 0)
(505.12 -2.7801e-05 0)
(505.115 -4.74512e-05 0)
(505.113 -5.29457e-05 0)
(505.112 -4.5538e-05 0)
(505.113 -2.6044e-05 0)
(505.114 -1.23333e-06 0)
(505.118 2.04347e-05 0)
(505.125 2.84474e-05 0)
(505.135 2.61509e-05 0)
(505.146 3.31259e-05 0)
(505.156 3.58169e-05 0)
(505.164 2.62709e-05 0)
(505.169 1.02261e-05 0)
(505.173 3.40625e-06 0)
(505.177 4.34956e-06 0)
(505.181 6.99973e-06 0)
(505.185 -9.36634e-07 0)
(505.191 -1.341e-05 0)
(505.196 -2.20854e-05 0)
(505.2 -2.57568e-05 0)
(505.202 -1.58918e-05 0)
(505.201 -2.58229e-06 0)
(505.2 4.98528e-06 0)
(505.2 7.64974e-06 0)
(505.199 1.04237e-05 0)
(505.197 1.35842e-05 0)
(505.195 1.53264e-05 0)
(505.191 1.24033e-05 0)
(505.185 1.7398e-05 0)
(505.179 3.01166e-06 0)
(505.173 7.62033e-07 0)
(505.166 4.54686e-06 0)
(505.161 8.25925e-06 0)
(505.157 3.16933e-06 0)
(505.154 -1.35754e-05 0)
(505.152 -3.87112e-05 0)
(505.15 -4.45545e-05 0)
(505.148 -3.59521e-05 0)
(505.146 -1.00004e-05 0)
(505.145 2.39615e-05 0)
(505.143 4.74873e-05 0)
(505.142 4.91593e-05 0)
(505.14 4.47839e-05 0)
(505.139 1.4576e-05 0)
(505.138 -1.77345e-05 0)
(505.135 -3.66922e-05 0)
(505.131 -4.63467e-05 0)
(505.125 -3.89772e-05 0)
(505.118 -3.56914e-05 0)
(505.111 -6.62195e-05 0)
(505.108 -5.52881e-05 0)
(505.108 -2.9886e-05 0)
(505.108 -5.23876e-06 0)
(505.11 1.2621e-05 0)
(505.114 2.73488e-05 0)
(505.122 4.00231e-05 0)
(505.132 8.72326e-05 0)
(505.145 5.43943e-05 0)
(505.157 -7.37829e-06 0)
(505.168 -7.73094e-06 0)
(505.175 -1.17788e-05 0)
(505.179 -2.49807e-05 0)
(505.182 -3.08554e-05 0)
(505.183 -2.17468e-05 0)
(505.185 -4.12939e-06 0)
(505.188 8.22028e-06 0)
(505.192 1.75394e-05 0)
(505.196 2.37962e-05 0)
(505.201 2.45847e-05 0)
(505.204 2.16188e-05 0)
(505.206 1.40805e-05 0)
(505.206 -1.57472e-06 0)
(505.205 -1.82548e-05 0)
(505.204 -2.29308e-05 0)
(505.203 -3.23379e-05 0)
(505.2 -4.50204e-05 0)
(505.195 -1.24505e-05 0)
(505.189 7.13648e-06 0)
(505.181 1.43373e-05 0)
(505.173 1.88692e-05 0)
(505.166 1.781e-05 0)
(505.16 9.29803e-06 0)
(505.156 1.38222e-06 0)
(505.154 -1.20211e-05 0)
(505.151 -2.99338e-05 0)
(505.149 -4.13474e-05 0)
(505.148 -4.69109e-05 0)
(505.146 -3.48611e-05 0)
(505.145 -2.17903e-05 0)
(505.143 -1.66664e-05 0)
(505.142 -1.49769e-05 0)
(505.141 -2.49514e-05 0)
(505.139 -2.88229e-05 0)
(505.137 -2.00342e-05 0)
(505.133 1.03283e-05 0)
(505.128 6.26358e-05 0)
(505.121 0.000107181 0)
(505.113 0.000133745 0)
(505.104 0.000180041 0)
(505.098 0.000147249 0)
(505.097 -2.8292e-05 0)
(505.099 -0.000141791 0)
(505.1 -0.000152885 0)
(505.103 -0.000148584 0)
(505.109 -9.8908e-05 0)
(505.118 -4.67245e-05 0)
(505.131 1.07895e-05 0)
(505.146 5.3538e-05 0)
(505.159 3.50574e-05 0)
(505.17 2.32961e-05 0)
(505.177 5.03577e-05 0)
(505.18 0.000101268 0)
(505.184 0.000122562 0)
(505.187 0.000126851 0)
(505.191 0.000121333 0)
(505.195 5.19357e-05 0)
(505.2 -6.88049e-05 0)
(505.205 -0.000132071 0)
(505.21 -0.000165346 0)
(505.214 -0.000170948 0)
(505.214 -0.000135808 0)
(505.213 -8.36731e-05 0)
(505.213 -4.82564e-05 0)
(505.212 -1.82781e-06 0)
(505.211 7.38719e-05 0)
(505.208 0.000153596 0)
(505.204 0.000206539 0)
(505.199 0.000195258 0)
(505.192 0.000151397 0)
(505.184 7.94197e-05 0)
(505.176 5.73886e-06 0)
(505.169 -4.92596e-05 0)
(505.163 -8.43406e-05 0)
(505.158 -0.000115072 0)
(505.154 -0.000151321 0)
(505.15 -0.000168988 0)
(505.147 -0.000176945 0)
(505.144 -0.000169115 0)
(505.141 -0.000103662 0)
(505.137 4.97451e-06 0)
(505.134 8.9934e-05 0)
(505.131 0.000156734 0)
(505.127 0.000226788 0)
(505.125 0.000275996 0)
(505.12 0.000233356 0)
(505.114 0.000144262 0)
(505.106 0.000104598 0)
(505.095 -6.5255e-06 0)
(505.084 -8.09501e-05 0)
(505.078 -0.000119436 0)
(505.078 -0.000209373 0)
(505.078 -0.00022027 0)
(505.085 -0.000168938 0)
(500 -2.3697e-14 0)
(500 8.19836e-14 0)
(500 1.28284e-13 0)
(500 7.38514e-14 0)
(500 -1.28239e-14 0)
(500 -6.78482e-15 0)
(500 9.35504e-14 0)
(500 1.82399e-13 0)
(500 1.38059e-13 0)
(500 1.74193e-13 0)
(500 1.99594e-13 0)
(500 1.81715e-13 0)
(500 1.44268e-13 0)
(500 7.96078e-14 0)
(500 5.27457e-14 0)
(500 1.49435e-13 0)
(500 1.38042e-13 0)
(500 4.75246e-14 0)
(500 6.17624e-14 0)
(500 1.39094e-13 0)
(500 1.57789e-13 0)
(500 9.56288e-14 0)
(500 2.26374e-14 0)
(500 -2.01741e-13 0)
(500 -4.01955e-13 0)
(500 -3.26206e-13 0)
(500 -3.53907e-13 0)
(500 -3.24716e-13 0)
(500 -2.90047e-13 0)
(500 9.20445e-13 0)
(500 -7.27624e-12 0)
(500 3.38123e-11 0)
(500 -1.25201e-10 0)
(500 2.23236e-10 0)
(500 3.90222e-10 0)
(500 -4.52541e-09 0)
(500 1.70108e-08 0)
(500 -2.16693e-08 0)
(500 -9.17986e-08 0)
(500 6.2131e-07 0)
(499.999 -1.55179e-06 0)
(499.996 1.05501e-07 0)
(499.989 1.48037e-05 0)
(499.973 -6.12495e-05 0)
(499.936 0.000136 0)
(499.859 -0.000160273 0)
(499.715 -7.19585e-05 0)
(499.497 0.000565514 0)
(499.288 -0.000554041 0)
(499.217 -0.000101309 0)
(499.22 1.48262e-05 0)
(499.253 8.97009e-05 0)
(499.356 0.000336377 0)
(499.559 -0.000280794 0)
(499.869 -0.000517343 0)
(500.269 0.00227633 0)
(500.731 -0.000118129 0)
(501.225 -0.00513844 0)
(501.722 0.00193186 0)
(502.204 0.00792299 0)
(502.664 -0.00261935 0)
(503.087 -0.00939684 0)
(503.464 0.00337273 0)
(503.789 0.0110716 0)
(504.068 7.20146e-05 0)
(504.294 -0.00949795 0)
(504.475 -0.00293973 0)
(504.616 0.00695253 0)
(504.731 0.00537437 0)
(504.829 -0.00209689 0)
(504.912 -0.00544654 0)
(504.985 -0.00165374 0)
(505.049 0.00393127 0)
(505.106 0.00381398 0)
(505.16 -0.0004121 0)
(505.209 -0.00340961 0)
(505.255 -0.00188625 0)
(505.292 0.00158581 0)
(505.311 0.001773 0)
(505.315 0.000309091 0)
(505.315 -0.000767125 0)
(505.314 -0.000769565 0)
(505.312 -0.000333489 0)
(505.307 0.00042101 0)
(505.298 0.000704436 0)
(505.284 0.00037368 0)
(505.266 -0.000493912 0)
(505.244 -0.0010253 0)
(505.221 -0.000252003 0)
(505.201 0.000753725 0)
(505.183 0.000478602 0)
(505.169 -0.00042464 0)
(505.159 -0.000585369 0)
(505.15 -3.84266e-05 0)
(505.142 0.000418545 0)
(505.136 0.000441443 0)
(505.131 8.60317e-05 0)
(505.126 -0.000261306 0)
(505.122 -0.000254192 0)
(505.119 -8.26446e-05 0)
(505.116 0.000144113 0)
(505.113 0.000160006 0)
(505.111 0.000112977 0)
(505.11 -1.08862e-05 0)
(505.11 -0.000137067 0)
(505.11 -0.000131466 0)
(505.11 -0.000127374 0)
(505.11 -0.000127404 0)
(505.112 -8.76533e-05 0)
(505.114 -8.53547e-06 0)
(505.119 3.21908e-05 0)
(505.125 6.26134e-05 0)
(505.133 8.71506e-05 0)
(505.142 2.99385e-05 0)
(505.152 -6.98199e-05 0)
(505.162 1.61914e-05 0)
(505.17 0.000202946 0)
(505.178 0.000198196 0)
(505.185 8.3614e-05 0)
(505.192 -5.26676e-05 0)
(505.198 -0.000141678 0)
(505.202 -3.13374e-05 0)
(505.203 3.19156e-05 0)
(505.204 5.76537e-05 0)
(505.204 1.65475e-05 0)
(505.204 -9.26643e-05 0)
(505.202 -0.000151095 0)
(505.2 -0.000195576 0)
(505.195 -0.00011775 0)
(505.189 -2.31864e-05 0)
(505.182 9.83351e-05 0)
(505.175 0.00024588 0)
(505.169 0.000191281 0)
(505.165 -9.82802e-05 0)
(505.16 -0.000187776 0)
(505.157 -0.000244281 0)
(505.154 -0.000246318 0)
(505.151 -6.07487e-05 0)
(505.148 0.000127452 0)
(505.146 0.000182669 0)
(505.143 0.000215178 0)
(505.142 6.75347e-05 0)
(505.14 -3.55359e-05 0)
(505.138 -5.10177e-06 0)
(505.135 6.24037e-05 0)
(505.131 0.00011976 0)
(505.125 0.000170465 0)
(505.12 7.09592e-05 0)
(505.114 -6.99884e-05 0)
(505.113 -0.000107636 0)
(505.112 -0.000148803 0)
(505.113 -0.000154061 0)
(505.114 -0.000113933 0)
(505.119 -2.13377e-05 0)
(505.126 2.97287e-05 0)
(505.135 5.45468e-05 0)
(505.146 7.99534e-05 0)
(505.156 9.55737e-05 0)
(505.164 7.93307e-05 0)
(505.169 5.38615e-05 0)
(505.173 5.50279e-05 0)
(505.177 6.27684e-05 0)
(505.181 5.03498e-05 0)
(505.186 9.28782e-06 0)
(505.191 -3.27729e-05 0)
(505.196 -6.159e-05 0)
(505.2 -9.57329e-05 0)
(505.202 -0.000123992 0)
(505.201 -9.57894e-05 0)
(505.2 -5.44611e-05 0)
(505.2 -4.75989e-05 0)
(505.199 -3.63259e-05 0)
(505.197 -1.83591e-05 0)
(505.195 1.89733e-07 0)
(505.191 1.01353e-05 0)
(505.185 3.88194e-05 0)
(505.179 1.62278e-05 0)
(505.173 2.08659e-05 0)
(505.166 3.34784e-05 0)
(505.161 7.34119e-05 0)
(505.157 9.72704e-05 0)
(505.154 8.55133e-05 0)
(505.152 -5.50634e-05 0)
(505.15 -0.000140208 0)
(505.148 -0.000155143 0)
(505.146 -0.000175746 0)
(505.145 -9.687e-05 0)
(505.143 5.67971e-05 0)
(505.142 0.00012256 0)
(505.14 0.000177271 0)
(505.139 0.000212731 0)
(505.137 8.64844e-05 0)
(505.135 1.45115e-06 0)
(505.131 -3.07553e-05 0)
(505.125 -3.26073e-05 0)
(505.118 -4.04861e-05 0)
(505.111 -8.48803e-05 0)
(505.108 -9.57736e-05 0)
(505.108 -8.80673e-05 0)
(505.108 -8.82983e-05 0)
(505.11 -7.10791e-05 0)
(505.114 -8.19366e-06 0)
(505.122 6.82422e-05 0)
(505.132 0.000191994 0)
(505.145 0.000230934 0)
(505.157 0.0001187 0)
(505.168 2.46077e-05 0)
(505.175 -8.76372e-05 0)
(505.179 -0.000177084 0)
(505.182 -0.00023262 0)
(505.183 -0.000100076 0)
(505.185 -7.00971e-06 0)
(505.188 1.74124e-05 0)
(505.192 3.81427e-05 0)
(505.196 4.85208e-05 0)
(505.201 6.28046e-05 0)
(505.204 7.1559e-05 0)
(505.206 7.35283e-05 0)
(505.206 5.66288e-05 0)
(505.205 -4.35129e-06 0)
(505.204 -3.17285e-05 0)
(505.203 -8.00336e-05 0)
(505.2 -0.000143606 0)
(505.195 -0.000117826 0)
(505.189 -5.56371e-05 0)
(505.181 -1.45024e-05 0)
(505.173 4.69188e-05 0)
(505.166 9.85733e-05 0)
(505.16 0.000142944 0)
(505.156 0.000156291 0)
(505.154 8.78398e-05 0)
(505.151 3.86283e-05 0)
(505.149 3.53913e-06 0)
(505.148 -4.92366e-05 0)
(505.146 -7.97888e-05 0)
(505.145 -8.18681e-05 0)
(505.143 -8.05591e-05 0)
(505.142 -8.10451e-05 0)
(505.141 -8.96822e-05 0)
(505.139 -0.000112433 0)
(505.137 -0.000131437 0)
(505.133 -0.000144676 0)
(505.128 -9.60079e-05 0)
(505.121 2.81173e-05 0)
(505.113 0.000119441 0)
(505.104 0.000433158 0)
(505.098 0.000667783 0)
(505.097 0.000465524 0)
(505.098 -7.42591e-05 0)
(505.099 -0.000251743 0)
(505.103 -0.00037329 0)
(505.109 -0.000487818 0)
(505.119 -0.000481305 0)
(505.132 -0.000286983 0)
(505.146 -1.79576e-05 0)
(505.16 6.985e-05 0)
(505.17 -8.30644e-06 0)
(505.177 -4.10803e-05 0)
(505.181 2.16189e-05 0)
(505.184 0.000145307 0)
(505.187 0.00026167 0)
(505.191 0.000426093 0)
(505.195 0.000484633 0)
(505.2 0.000254834 0)
(505.205 2.33314e-06 0)
(505.21 -0.000199211 0)
(505.214 -0.000394683 0)
(505.214 -0.000508922 0)
(505.213 -0.000444188 0)
(505.213 -0.00038175 0)
(505.212 -0.00032587 0)
(505.211 -0.000216147 0)
(505.208 -5.18282e-06 0)
(505.205 0.000272446 0)
(505.199 0.00046838 0)
(505.192 0.000530972 0)
(505.184 0.000483814 0)
(505.176 0.000371811 0)
(505.169 0.000231217 0)
(505.162 6.8443e-05 0)
(505.158 -0.000137929 0)
(505.154 -0.000326217 0)
(505.15 -0.000390827 0)
(505.147 -0.000419235 0)
(505.144 -0.000466332 0)
(505.14 -0.000477463 0)
(505.137 -0.000383761 0)
(505.134 -0.000317615 0)
(505.131 -0.000205346 0)
(505.128 6.69931e-05 0)
(505.125 0.000441973 0)
(505.12 0.000557059 0)
(505.114 0.000524763 0)
(505.105 0.000541839 0)
(505.094 0.000458871 0)
(505.083 0.000393137 0)
(505.078 0.000231242 0)
(505.077 -0.000177633 0)
(505.078 -0.000529943 0)
(505.085 -0.000580283 0)
(500 1.12836e-13 0)
(500 6.08815e-14 0)
(500 3.64659e-14 0)
(500 6.40491e-14 0)
(500 1.3197e-13 0)
(500 1.78548e-13 0)
(500 2.09151e-13 0)
(500 1.754e-13 0)
(500 1.49003e-13 0)
(500 1.24794e-13 0)
(500 1.56828e-13 0)
(500 3.09447e-13 0)
(500 2.31044e-13 0)
(500 6.08804e-14 0)
(500 1.03479e-13 0)
(500 9.45479e-14 0)
(500 3.63279e-14 0)
(500 1.168e-14 0)
(500 3.6139e-13 0)
(500 2.27963e-13 0)
(500 2.55119e-13 0)
(500 1.61746e-13 0)
(500 6.94219e-14 0)
(500 -2.82318e-13 0)
(500 -3.75852e-13 0)
(500 -2.77964e-13 0)
(500 -2.08479e-13 0)
(500 -2.62931e-13 0)
(500 -2.53411e-13 0)
(500 1.45691e-12 0)
(500 -1.0168e-11 0)
(500 5.04233e-11 0)
(500 -1.84439e-10 0)
(500 3.70766e-10 0)
(500 3.3117e-10 0)
(500 -5.97371e-09 0)
(500 2.38096e-08 0)
(500 -3.09714e-08 0)
(500 -1.29133e-07 0)
(500 8.97199e-07 0)
(499.999 -2.21468e-06 0)
(499.996 8.82776e-08 0)
(499.989 2.1027e-05 0)
(499.973 -8.60051e-05 0)
(499.936 0.000190345 0)
(499.859 -0.000206615 0)
(499.715 -0.00014271 0)
(499.497 0.000830152 0)
(499.288 -0.00073997 0)
(499.217 -0.000181613 0)
(499.22 -2.57386e-05 0)
(499.253 0.000124003 0)
(499.356 0.000353044 0)
(499.559 -0.000542875 0)
(499.869 0.000137215 0)
(500.268 0.00268555 0)
(500.732 -0.0022477 0)
(501.225 -0.00519657 0)
(501.72 0.00540198 0)
(502.204 0.00677404 0)
(502.665 -0.00719874 0)
(503.087 -0.00882158 0)
(503.462 0.00825848 0)
(503.788 0.0102976 0)
(504.069 -0.0041025 0)
(504.294 -0.0108008 0)
(504.475 0.000150692 0)
(504.615 0.00847721 0)
(504.732 0.00392665 0)
(504.83 -0.00397122 0)
(504.912 -0.00597659 0)
(504.985 -0.000156719 0)
(505.048 0.00503957 0)
(505.107 0.00336872 0)
(505.161 -0.00136636 0)
(505.21 -0.00388517 0)
(505.256 -0.00137318 0)
(505.291 0.00188436 0)
(505.311 0.00166011 0)
(505.315 0.000474172 0)
(505.316 -0.000892097 0)
(505.315 -0.000898008 0)
(505.312 -0.000186951 0)
(505.307 0.000630927 0)
(505.298 0.000874828 0)
(505.284 0.000369457 0)
(505.266 -0.000739776 0)
(505.244 -0.00112943 0)
(505.222 -0.000114277 0)
(505.201 0.000924232 0)
(505.183 0.000397988 0)
(505.17 -0.000688568 0)
(505.159 -0.000599351 0)
(505.15 0.000126697 0)
(505.143 0.000520427 0)
(505.136 0.000264271 0)
(505.13 -0.000116629 0)
(505.126 -0.000314396 0)
(505.122 -0.00021729 0)
(505.119 -2.24316e-05 0)
(505.116 0.000195421 0)
(505.114 0.000187491 0)
(505.111 0.000124688 0)
(505.11 -3.49842e-06 0)
(505.11 -0.000170255 0)
(505.11 -0.000178062 0)
(505.11 -0.000146986 0)
(505.11 -0.000108704 0)
(505.112 -6.72831e-05 0)
(505.114 3.32171e-06 0)
(505.119 2.84808e-05 0)
(505.125 6.11119e-05 0)
(505.133 0.000104107 0)
(505.142 3.7937e-05 0)
(505.152 -7.95045e-05 0)
(505.162 3.00263e-05 0)
(505.17 0.000209602 0)
(505.178 0.000172177 0)
(505.185 3.24502e-05 0)
(505.192 -2.78733e-05 0)
(505.198 -0.000112654 0)
(505.202 -5.72991e-05 0)
(505.204 3.17422e-05 0)
(505.204 6.2208e-05 0)
(505.204 4.81983e-05 0)
(505.204 -4.83959e-05 0)
(505.202 -0.000137021 0)
(505.2 -0.000194552 0)
(505.195 -0.000155111 0)
(505.189 -9.84135e-05 0)
(505.182 7.46151e-05 0)
(505.175 0.000304807 0)
(505.169 0.000317751 0)
(505.165 -4.24786e-05 0)
(505.16 -0.0002548 0)
(505.157 -0.000315063 0)
(505.154 -0.000331885 0)
(505.151 -0.000170461 0)
(505.148 0.000102652 0)
(505.146 0.000211888 0)
(505.144 0.000248615 0)
(505.142 0.000210456 0)
(505.14 6.48754e-06 0)
(505.138 -5.15769e-05 0)
(505.135 9.48781e-06 0)
(505.131 9.80785e-05 0)
(505.125 0.000159696 0)
(505.119 0.000202518 0)
(505.114 -1.55728e-05 0)
(505.113 -8.35714e-05 0)
(505.112 -0.000154278 0)
(505.113 -0.000200311 0)
(505.115 -0.000174124 0)
(505.119 -5.72348e-05 0)
(505.126 -7.44936e-06 0)
(505.135 2.27388e-05 0)
(505.146 4.19563e-05 0)
(505.156 4.01377e-05 0)
(505.164 4.22896e-05 0)
(505.169 6.2281e-05 0)
(505.173 8.19597e-05 0)
(505.177 0.000103182 0)
(505.181 0.000101163 0)
(505.186 2.37188e-05 0)
(505.191 -5.15681e-05 0)
(505.196 -8.42096e-05 0)
(505.2 -0.000111286 0)
(505.202 -0.000109427 0)
(505.201 -7.68556e-05 0)
(505.2 -4.98947e-05 0)
(505.2 -4.74264e-05 0)
(505.199 -4.32434e-05 0)
(505.197 -2.79747e-05 0)
(505.195 -2.28863e-06 0)
(505.191 1.89712e-05 0)
(505.185 5.26914e-05 0)
(505.179 3.77376e-05 0)
(505.173 4.04777e-05 0)
(505.166 5.85352e-05 0)
(505.161 9.94379e-05 0)
(505.157 0.000106239 0)
(505.154 7.29245e-05 0)
(505.152 -4.48856e-05 0)
(505.15 -0.000148122 0)
(505.148 -0.000165778 0)
(505.146 -0.000174311 0)
(505.145 -0.000137945 0)
(505.143 7.42559e-06 0)
(505.142 0.000114383 0)
(505.14 0.00017668 0)
(505.139 0.000218075 0)
(505.137 0.00011063 0)
(505.135 -3.18539e-05 0)
(505.131 -8.08034e-05 0)
(505.125 -8.06587e-05 0)
(505.118 -9.94401e-05 0)
(505.111 -0.000136506 0)
(505.108 -0.000123794 0)
(505.108 -8.17744e-05 0)
(505.108 -7.89073e-05 0)
(505.11 -6.88797e-05 0)
(505.115 -3.57771e-05 0)
(505.122 2.23164e-05 0)
(505.132 0.000162444 0)
(505.145 0.000271089 0)
(505.157 0.000234303 0)
(505.167 9.47097e-05 0)
(505.175 -0.000108204 0)
(505.179 -0.00023173 0)
(505.182 -0.000295089 0)
(505.184 -0.00019452 0)
(505.185 -1.6789e-05 0)
(505.188 3.47726e-05 0)
(505.192 5.63463e-05 0)
(505.196 8.2605e-05 0)
(505.201 9.24733e-05 0)
(505.204 9.3373e-05 0)
(505.206 9.28117e-05 0)
(505.206 8.50635e-05 0)
(505.205 4.09588e-05 0)
(505.204 7.63206e-06 0)
(505.203 -6.2731e-05 0)
(505.2 -0.000146763 0)
(505.195 -0.000170121 0)
(505.189 -0.000127382 0)
(505.181 -6.40117e-05 0)
(505.174 3.25827e-05 0)
(505.166 0.000123572 0)
(505.16 0.000173424 0)
(505.156 0.000181122 0)
(505.154 0.000118036 0)
(505.151 6.96826e-05 0)
(505.149 3.17876e-05 0)
(505.148 -2.87685e-05 0)
(505.146 -9.00401e-05 0)
(505.145 -0.000127932 0)
(505.143 -0.00014357 0)
(505.142 -0.000167656 0)
(505.141 -0.000179298 0)
(505.139 -0.000157723 0)
(505.137 -0.000150537 0)
(505.133 -0.000135207 0)
(505.128 -6.01408e-05 0)
(505.122 3.15864e-05 0)
(505.114 0.000106692 0)
(505.105 0.000438522 0)
(505.098 0.000749625 0)
(505.097 0.000674864 0)
(505.097 0.000247555 0)
(505.099 -0.000274006 0)
(505.102 -0.000424352 0)
(505.109 -0.000560071 0)
(505.119 -0.000559933 0)
(505.132 -0.000513918 0)
(505.146 -0.000303849 0)
(505.16 1.24153e-05 0)
(505.17 6.10751e-05 0)
(505.176 7.45994e-05 0)
(505.181 8.58288e-05 0)
(505.184 0.000129042 0)
(505.187 0.000244582 0)
(505.191 0.000445737 0)
(505.195 0.000586497 0)
(505.2 0.000444422 0)
(505.205 0.000172752 0)
(505.21 -0.000104142 0)
(505.214 -0.000356501 0)
(505.214 -0.000540134 0)
(505.214 -0.000496308 0)
(505.213 -0.000443823 0)
(505.213 -0.000397756 0)
(505.211 -0.000278902 0)
(505.209 -8.73002e-06 0)
(505.205 0.000330137 0)
(505.199 0.000528303 0)
(505.192 0.000611122 0)
(505.184 0.000623148 0)
(505.175 0.000558039 0)
(505.168 0.000350667 0)
(505.162 0.0001299 0)
(505.157 -0.000159329 0)
(505.154 -0.00047535 0)
(505.15 -0.000560718 0)
(505.147 -0.000564701 0)
(505.144 -0.000548453 0)
(505.141 -0.000494706 0)
(505.137 -0.000431247 0)
(505.134 -0.000364762 0)
(505.131 -0.000183983 0)
(505.128 0.000232424 0)
(505.125 0.000569135 0)
(505.12 0.000619165 0)
(505.114 0.000597861 0)
(505.105 0.000583611 0)
(505.094 0.000556258 0)
(505.083 0.000422133 0)
(505.077 0.000196332 0)
(505.076 -0.000122665 0)
(505.078 -0.000576644 0)
(505.085 -0.000710468 0)
(500 -4.07954e-15 0)
(500 -2.21549e-13 0)
(500 -1.66503e-13 0)
(500 -6.41749e-14 0)
(500 2.83143e-13 0)
(500 2.73848e-13 0)
(500 1.62414e-13 0)
(500 1.60081e-13 0)
(500 1.67312e-13 0)
(500 1.40815e-13 0)
(500 1.7358e-13 0)
(500 3.12021e-13 0)
(500 1.82027e-13 0)
(500 1.60854e-13 0)
(500 1.90673e-13 0)
(500 5.6771e-14 0)
(500 -9.20452e-14 0)
(500 9.99899e-14 0)
(500 3.08366e-13 0)
(500 1.59772e-13 0)
(500 1.39938e-13 0)
(500 -6.22837e-14 0)
(500 -6.30839e-14 0)
(500 -1.45714e-13 0)
(500 -2.07702e-13 0)
(500 -1.72092e-13 0)
(500 -4.28366e-14 0)
(500 -5.49476e-14 0)
(500 -3.07178e-13 0)
(500 1.87736e-12 0)
(500 -1.22241e-11 0)
(500 6.17066e-11 0)
(500 -2.25691e-10 0)
(500 4.94557e-10 0)
(500 1.89655e-10 0)
(500 -6.54269e-09 0)
(500 2.63223e-08 0)
(500 -3.30362e-08 0)
(500 -1.59852e-07 0)
(500 1.05624e-06 0)
(499.999 -2.55823e-06 0)
(499.996 -6.32491e-08 0)
(499.989 2.46333e-05 0)
(499.973 -9.93342e-05 0)
(499.936 0.000213895 0)
(499.859 -0.000208408 0)
(499.715 -0.000235678 0)
(499.497 0.00103075 0)
(499.288 -0.000834321 0)
(499.217 -0.000240284 0)
(499.22 -5.79292e-05 0)
(499.253 0.000156059 0)
(499.356 0.000304067 0)
(499.559 -0.000708167 0)
(499.868 0.00100178 0)
(500.269 0.00246761 0)
(500.732 -0.00443936 0)
(501.225 -0.00362865 0)
(501.719 0.00827747 0)
(502.205 0.00378801 0)
(502.665 -0.0111226 0)
(503.086 -0.00513019 0)
(503.459 0.0122013 0)
(503.789 0.00745498 0)
(504.069 -0.00846958 0)
(504.294 -0.00970442 0)
(504.473 0.00435317 0)
(504.614 0.00844997 0)
(504.733 0.00143201 0)
(504.83 -0.00582967 0)
(504.912 -0.00525942 0)
(504.985 0.00219524 0)
(505.048 0.0053436 0)
(505.107 0.0021991 0)
(505.161 -0.00251883 0)
(505.21 -0.00384489 0)
(505.255 -9.73203e-05 0)
(505.291 0.00191442 0)
(505.311 0.00142463 0)
(505.316 -7.55105e-05 0)
(505.316 -0.00105609 0)
(505.315 -0.000842005 0)
(505.312 0.000152419 0)
(505.307 0.000819149 0)
(505.298 0.000906875 0)
(505.284 0.000147591 0)
(505.266 -0.000912419 0)
(505.244 -0.000950913 0)
(505.222 0.000234212 0)
(505.201 0.000987893 0)
(505.183 0.0001195 0)
(505.17 -0.000723128 0)
(505.159 -0.000275653 0)
(505.15 0.000392129 0)
(505.143 0.000446155 0)
(505.136 5.91757e-05 0)
(505.13 -0.000382905 0)
(505.126 -0.000455213 0)
(505.122 -0.000198744 0)
(505.119 0.000165104 0)
(505.117 0.000311759 0)
(505.114 0.000287688 0)
(505.112 0.000124388 0)
(505.11 -4.03356e-05 0)
(505.11 -0.000154059 0)
(505.11 -0.000191147 0)
(505.11 -0.000166042 0)
(505.111 -0.000114137 0)
(505.112 -8.02366e-06 0)
(505.115 5.89375e-05 0)
(505.119 7.63495e-05 0)
(505.125 9.71474e-05 0)
(505.133 0.000112868 0)
(505.142 6.24283e-06 0)
(505.152 -0.000136057 0)
(505.162 4.29724e-06 0)
(505.17 0.000155812 0)
(505.178 4.21462e-05 0)
(505.185 -8.50051e-05 0)
(505.192 -4.53912e-05 0)
(505.198 3.00411e-05 0)
(505.202 0.000103152 0)
(505.204 0.000102209 0)
(505.204 6.32613e-05 0)
(505.204 -1.17841e-05 0)
(505.203 -0.000116147 0)
(505.202 -0.000218272 0)
(505.199 -0.000233521 0)
(505.195 -0.000188928 0)
(505.19 -9.57069e-05 0)
(505.183 5.39781e-05 0)
(505.176 0.000293466 0)
(505.169 0.000422476 0)
(505.164 0.000178906 0)
(505.16 -0.000262166 0)
(505.157 -0.000372423 0)
(505.154 -0.000382696 0)
(505.151 -0.000282928 0)
(505.148 -3.35851e-05 0)
(505.146 0.000178313 0)
(505.144 0.000235866 0)
(505.142 0.000251635 0)
(505.14 0.00017469 0)
(505.138 1.55902e-05 0)
(505.135 -6.3056e-06 0)
(505.131 3.88816e-05 0)
(505.126 7.47726e-05 0)
(505.119 0.000112388 0)
(505.114 2.70548e-05 0)
(505.112 -3.02452e-05 0)
(505.112 -8.70192e-05 0)
(505.113 -0.000117646 0)
(505.115 -8.98772e-05 0)
(505.119 -4.47622e-05 0)
(505.126 -2.77282e-05 0)
(505.135 -3.4326e-05 0)
(505.146 -5.81335e-05 0)
(505.156 -9.68187e-05 0)
(505.164 -6.41766e-05 0)
(505.169 4.97563e-05 0)
(505.173 9.12244e-05 0)
(505.177 0.000125337 0)
(505.181 0.000168392 0)
(505.185 9.5304e-05 0)
(505.191 -2.14585e-05 0)
(505.196 -6.85032e-05 0)
(505.2 -0.000106278 0)
(505.202 -0.000120699 0)
(505.201 -8.69726e-05 0)
(505.201 -4.5541e-05 0)
(505.2 -3.95087e-05 0)
(505.199 -3.17077e-05 0)
(505.197 -1.85313e-05 0)
(505.195 7.10394e-06 0)
(505.191 2.68879e-05 0)
(505.185 5.05111e-05 0)
(505.179 5.87023e-05 0)
(505.173 3.94982e-05 0)
(505.166 4.46287e-05 0)
(505.161 5.86205e-05 0)
(505.157 4.95726e-05 0)
(505.154 1.04208e-05 0)
(505.151 -4.9176e-05 0)
(505.15 -0.000105202 0)
(505.148 -0.000108305 0)
(505.147 -0.000110488 0)
(505.145 -9.79784e-05 0)
(505.143 6.66895e-06 0)
(505.142 0.000141825 0)
(505.141 0.000193243 0)
(505.139 0.000251012 0)
(505.137 0.000212029 0)
(505.135 2.21543e-05 0)
(505.131 -0.000111707 0)
(505.125 -0.000127968 0)
(505.118 -0.000155009 0)
(505.111 -0.000165789 0)
(505.108 -0.000124063 0)
(505.108 -6.82638e-05 0)
(505.108 -3.8944e-05 0)
(505.11 -2.20905e-05 0)
(505.115 -1.4458e-05 0)
(505.122 1.24175e-05 0)
(505.133 8.8456e-05 0)
(505.145 0.0002455 0)
(505.157 0.000355509 0)
(505.167 0.000185622 0)
(505.174 -1.72327e-05 0)
(505.179 -0.000250893 0)
(505.182 -0.000348134 0)
(505.184 -0.000353557 0)
(505.186 -0.000114572 0)
(505.188 2.57264e-05 0)
(505.192 7.15022e-05 0)
(505.196 0.000117843 0)
(505.201 0.000139095 0)
(505.204 0.0001099 0)
(505.206 9.69146e-05 0)
(505.206 9.82335e-05 0)
(505.205 9.28304e-05 0)
(505.204 7.27698e-05 0)
(505.202 1.43275e-05 0)
(505.2 -9.60539e-05 0)
(505.195 -0.000173408 0)
(505.189 -0.000202754 0)
(505.182 -0.000175191 0)
(505.174 -6.46971e-05 0)
(505.167 6.66884e-05 0)
(505.161 0.000158746 0)
(505.156 0.000207958 0)
(505.154 0.000172274 0)
(505.151 0.000122104 0)
(505.149 7.82819e-05 0)
(505.148 4.20578e-06 0)
(505.146 -6.5257e-05 0)
(505.145 -0.000120427 0)
(505.143 -0.000150105 0)
(505.142 -0.000207789 0)
(505.141 -0.000263901 0)
(505.139 -0.000243648 0)
(505.137 -0.000187502 0)
(505.133 -0.000132563 0)
(505.128 3.06995e-06 0)
(505.122 0.000123899 0)
(505.114 0.000186101 0)
(505.105 0.000383522 0)
(505.098 0.000630475 0)
(505.097 0.000594884 0)
(505.097 0.000453985 0)
(505.098 3.32126e-05 0)
(505.102 -0.000403256 0)
(505.108 -0.000495492 0)
(505.119 -0.000520266 0)
(505.132 -0.000554094 0)
(505.147 -0.00063134 0)
(505.16 -0.00022543 0)
(505.17 0.000189606 0)
(505.176 0.000228608 0)
(505.181 0.000185849 0)
(505.184 0.000188962 0)
(505.187 0.000264432 0)
(505.191 0.000405305 0)
(505.195 0.000523833 0)
(505.2 0.000502667 0)
(505.204 0.000258634 0)
(505.209 -5.30075e-05 0)
(505.213 -0.000305257 0)
(505.214 -0.000583662 0)
(505.214 -0.000594199 0)
(505.214 -0.000539794 0)
(505.213 -0.000446327 0)
(505.212 -0.000272105 0)
(505.209 4.09438e-05 0)
(505.205 0.00036118 0)
(505.199 0.000537132 0)
(505.192 0.00060163 0)
(505.183 0.000623025 0)
(505.175 0.000510564 0)
(505.168 0.00031157 0)
(505.162 0.000174593 0)
(505.157 -4.01733e-05 0)
(505.153 -0.000436833 0)
(505.15 -0.000622287 0)
(505.147 -0.000623017 0)
(505.144 -0.000584324 0)
(505.141 -0.000487737 0)
(505.138 -0.000414848 0)
(505.134 -0.000302216 0)
(505.132 6.82641e-06 0)
(505.129 0.000436595 0)
(505.125 0.000567529 0)
(505.12 0.000587521 0)
(505.114 0.000569396 0)
(505.105 0.000496243 0)
(505.094 0.000445396 0)
(505.083 0.00023404 0)
(505.077 -6.44068e-05 0)
(505.076 -0.000279684 0)
(505.077 -0.000534633 0)
(505.085 -0.000619946 0)
(500 -1.55548e-13 0)
(500 -1.74701e-13 0)
(500 -1.93934e-13 0)
(500 -6.22661e-15 0)
(500 2.71567e-13 0)
(500 1.55057e-13 0)
(500 8.64278e-14 0)
(500 3.16792e-13 0)
(500 3.04553e-13 0)
(500 1.89366e-13 0)
(500 3.03324e-13 0)
(500 3.71842e-13 0)
(500 2.00924e-13 0)
(500 3.07554e-13 0)
(500 2.54254e-13 0)
(500 2.70348e-14 0)
(500 -7.81169e-14 0)
(500 -1.17248e-13 0)
(500 -5.53669e-14 0)
(500 6.83122e-14 0)
(500 -1.02106e-13 0)
(500 -8.97788e-14 0)
(500 -1.40927e-13 0)
(500 5.32234e-15 0)
(500 -7.76423e-14 0)
(500 -2.4321e-13 0)
(500 -3.31871e-13 0)
(500 -1.99275e-13 0)
(500 -4.02443e-13 0)
(500 2.15958e-12 0)
(500 -1.3359e-11 0)
(500 6.67597e-11 0)
(500 -2.45263e-10 0)
(500 5.5733e-10 0)
(500 1.01357e-10 0)