/*--------------------------------*- C++ -*----------------------------------*\
| =========                 |                                                 |
| \\      /  F ield         | OpenFOAM: The Open Source CFD Toolbox           |
|  \\    /   O peration     | Version:  2306                                  |
|   \\  /    A nd           | Website:  www.openfoam.com                      |
|    \\/     M anipulation  |                                                 |
\*---------------------------------------------------------------------------*/
FoamFile
{
    version     2.0;
    format      ascii;
    arch        "LSB;label=32;scalar=64";
    class       volVectorField;
    location    "0.09";
    object      U;
}
// * * * * * * * * * * * * * * * * * * * * * * * * * * * * * * * * * * * * * //

dimensions      [0 1 -1 0 0 0 0];

internalField   nonuniform List<vector> 
6000
(
(-2419.83 0.186499 0)
(-915.416 6.59883 0)
(-278.826 10.5769 0)
(-264.322 -0.473344 0)
(-126.215 0.0225231 0)
(24.6506 0.718191 0)
(188.229 1.38977 0)
(309.521 1.88813 0)
(346.475 2.1039 0)
(351.826 2.26117 0)
(350.004 2.34922 0)
(343.64 2.56693 0)
(333.405 2.49852 0)
(293.861 1.73139 0)
(108.969 -0.0486066 0)
(-167.307 -1.47332 0)
(-203.608 -1.95099 0)
(-187.133 -2.20065 0)
(-146.095 -2.383 0)
(-97.771 -2.54199 0)
(-52.5025 -2.63754 0)
(-10.366 -2.62979 0)
(30.5651 -2.57183 0)
(71.5585 -2.44857 0)
(113.219 -2.2558 0)
(155.762 -1.8999 0)
(199.553 -1.40403 0)
(246.887 -0.586941 0)
(300.049 0.185354 0)
(343.999 0.587152 0)
(356.344 0.6246 0)
(350.535 0.58366 0)
(282.931 0.390916 0)
(44.644 -0.0635061 0)
(-90.8954 -0.042613 0)
(-90.3149 0.118678 0)
(-69.3412 0.296524 0)
(-33.8005 0.492352 0)
(-1.96557 0.675732 0)
(22.1766 0.846278 0)
(42.9994 0.98047 0)
(63.9722 1.0688 0)
(86.3336 1.09959 0)
(109.794 1.04189 0)
(133.232 0.866903 0)
(155.527 0.593132 0)
(177.181 0.289541 0)
(202.441 0.0696134 0)
(241.18 -0.0188085 0)
(295.457 -0.0935186 0)
(321.067 -0.184652 0)
(318.204 -0.178888 0)
(266.798 0.00484584 0)
(84.4719 0.0262365 0)
(-27.7121 0.0950811 0)
(-30.604 0.166855 0)
(-18.4935 0.220377 0)
(7.30637 0.283807 0)
(32.1477 0.390984 0)
(48.865 0.503956 0)
(61.4201 0.582144 0)
(73.9367 0.632743 0)
(88.2925 0.663853 0)
(104.559 0.691107 0)
(121.37 0.711625 0)
(136.912 0.719588 0)
(150.59 0.702326 0)
(164.267 0.670554 0)
(183.131 0.633753 0)
(216.366 0.596693 0)
(258.662 0.557281 0)
(272.705 0.50443 0)
(267.916 0.474975 0)
(221.638 0.568312 0)
(87.7868 0.658468 0)
(15.0693 0.751205 0)
(12.7714 0.847139 0)
(20.675 0.942932 0)
(40.0705 1.02839 0)
(62.0898 1.10855 0)
(77.1033 1.19254 0)
(86.8111 1.26798 0)
(95.5828 1.33566 0)
(105.798 1.39991 0)
(118.028 1.46418 0)
(130.926 1.52928 0)
(142.526 1.54354 0)
(152.722 1.50916 0)
(163.837 1.44957 0)
(181.208 1.41416 0)
(211.437 1.41349 0)
(241.294 1.40667 0)
(249.712 1.40025 0)
(242.593 1.37543 0)
(194.635 1.1759 0)
(82.7634 1.1142 0)
(31.9657 1.24733 0)
(30.2103 1.38231 0)
(38.0745 1.51997 0)
(55.1485 1.68193 0)
(74.4644 1.85397 0)
(86.3512 1.99797 0)
(92.5095 2.11282 0)
(97.2673 2.22491 0)
(102.743 2.33624 0)
(110.371 2.43772 0)
(120.136 2.52463 0)
(129.473 2.60183 0)
(137.962 2.66272 0)
(145.763 2.72383 0)
(155.896 2.74532 0)
(173.349 2.68885 0)
(199.995 2.54472 0)
(222.02 2.28246 0)
(223.1 2.00915 0)
(201.206 1.71451 0)
(133.337 1.40369 0)
(61.101 1.23417 0)
(44.8216 1.17298 0)
(47.1693 1.11579 0)
(62.6905 1.01811 0)
(85.357 0.863921 0)
(104.074 0.638394 0)
(113.843 0.313668 0)
(118.102 -0.117273 0)
(121.752 -0.53588 0)
(127.476 -0.949099 0)
(135.603 -1.30158 0)
(144.055 -1.49367 0)
(150.985 -1.59167 0)
(158.426 -1.64961 0)
(172.635 -1.61227 0)
(196.079 -1.45838 0)
(213.224 -1.19657 0)
(205.699 -1.00328 0)
(172.459 -0.844028 0)
(100.861 -0.61763 0)
(63.685 -0.320806 0)
(57.4699 0.068943 0)
(66.4426 0.473845 0)
(86.5234 0.774803 0)
(106.702 0.868502 0)
(117.997 0.944063 0)
(121.95 0.967815 0)
(124.295 0.857879 0)
(128.572 0.61519 0)
(135.653 0.267381 0)
(144.917 -0.0719715 0)
(157.462 -0.258606 0)
(176.475 -0.437205 0)
(191.205 -0.532511 0)
(189.912 -0.486996 0)
(162.635 -0.472577 0)
(113.452 -0.555298 0)
(82.0074 -0.670193 0)
(76.0509 -0.749047 0)
(89.3693 -0.8178 0)
(112.195 -0.91317 0)
(129.9 -0.97582 0)
(137.196 -0.908578 0)
(139.072 -0.773269 0)
(141.891 -0.627062 0)
(151.378 -0.525512 0)
(170.506 -0.241914 0)
(187.213 0.261755 0)
(183.924 0.71355 0)
(156.728 1.04903 0)
(119.874 1.44171 0)
(101.937 1.65466 0)
(104.665 1.68428 0)
(117.98 1.56605 0)
(134.29 1.28378 0)
(148.688 0.923681 0)
(147.249 0.450605 0)
(134.624 0.00831324 0)
(121.849 -0.495708 0)
(119.039 -0.809338 0)
(126.723 -1.04114 0)
(138.448 -1.02222 0)
(141.057 -0.696868 0)
(137.33 -0.400039 0)
(130.718 -0.164136 0)
(128.136 -0.205756 0)
(129.933 -0.290397 0)
(135.506 -0.322486 0)
(138.887 -0.254598 0)
(138.053 -0.11758 0)
(134.875 0.0499882 0)
(132.208 0.12864 0)
(132.154 0.121193 0)
(133.816 0.0635064 0)
(136.257 0.00471764 0)
(136.76 -0.00542888 0)
(136.261 0.0144443 0)
(134.876 0.0524277 0)
(134.109 0.064788 0)
(134.121 0.0617535 0)
(134.487 0.0461433 0)
(134.717 0.0276231 0)
(134.464 0.0179986 0)
(133.842 0.0139899 0)
(133.257 0.0164265 0)
(133.076 0.0151136 0)
(133.191 0.0090893 0)
(133.461 0.000752983 0)
(133.561 -0.00285231 0)
(133.468 -0.00247206 0)
(133.277 0.00503584 0)
(133.165 0.0108351 0)
(133.189 0.0127072 0)
(133.316 0.013645 0)
(133.449 0.015892 0)
(133.465 0.0175891 0)
(133.411 0.0191953 0)
(133.266 0.021358 0)
(133.106 0.0236473 0)
(133.012 0.0259398 0)
(132.991 0.0284353 0)
(133.009 0.03029 0)
(133.027 0.0321924 0)
(133.064 0.0336362 0)
(133.14 0.0331857 0)
(133.279 0.0304436 0)
(133.452 0.0262517 0)
(133.462 0.0225645 0)
(133.322 0.022247 0)
(133.105 0.0213183 0)
(132.782 0.0225897 0)
(132.463 0.0234318 0)
(132.159 0.0326254 0)
(131.971 0.044916 0)
(131.983 0.0510458 0)
(132.106 0.0560799 0)
(132.304 0.0620236 0)
(132.517 0.0637123 0)
(132.692 0.0603289 0)
(132.813 0.053526 0)
(132.858 0.0381624 0)
(132.813 0.0343555 0)
(132.731 0.0319044 0)
(132.654 0.0300125 0)
(132.603 0.0291187 0)
(132.57 0.0296202 0)
(132.59 0.0243976 0)
(132.601 0.0218747 0)
(132.569 0.0177553 0)
(132.467 0.0150504 0)
(132.278 0.0176269 0)
(132.024 0.01158 0)
(131.77 0.00468246 0)
(131.549 -0.00561411 0)
(131.402 -0.0162136 0)
(131.31 -0.0175975 0)
(131.273 -0.0240704 0)
(131.284 -0.0243459 0)
(131.328 -0.0235512 0)
(131.398 -0.0244942 0)
(131.486 -0.0239602 0)
(131.589 -0.0216097 0)
(131.701 -0.0196083 0)
(131.812 -0.0196802 0)
(131.908 -0.0203519 0)
(131.971 -0.0227388 0)
(131.983 -0.0247275 0)
(131.96 -0.0290532 0)
(131.894 -0.0325702 0)
(131.777 -0.03363 0)
(131.623 -0.0324275 0)
(131.47 -0.0287486 0)
(131.353 -0.0250506 0)
(131.294 -0.0201754 0)
(131.295 -0.0173829 0)
(131.325 -0.0136031 0)
(131.38 -0.00912776 0)
(131.453 -0.00462916 0)
(131.532 -0.00154895 0)
(131.598 -0.000908373 0)
(131.621 -0.00190237 0)
(131.607 -0.00267779 0)
(131.569 -0.00405988 0)
(131.505 -0.00533221 0)
(131.405 -0.00601621 0)
(131.273 -0.00629572 0)
(131.147 -0.00640262 0)
(131.079 -0.00635014 0)
(131.041 -0.00532427 0)
(131.018 -0.00352205 0)
(131 6.69765e-05 0)
(130.987 0.00604924 0)
(130.969 0.0141373 0)
(130.948 0.0246606 0)
(130.909 0.0349721 0)
(130.843 0.0453559 0)
(130.761 0.0536694 0)
(130.698 0.0598148 0)
(130.675 0.0668222 0)
(130.678 0.0709386 0)
(130.7 0.0779542 0)
(130.748 0.0862277 0)
(130.877 0.0908495 0)
(-2417.84 1.03021 0)
(-779.288 16.1011 0)
(-288.526 15.1719 0)
(-270.12 -3.13814 0)
(-127.921 -3.33969 0)
(26.3279 -3.6623 0)
(191.211 -1.78308 0)
(311.659 0.655981 0)
(348.082 2.16805 0)
(353.732 3.54478 0)
(352.156 4.89317 0)
(345.705 6.79351 0)
(334.575 8.08358 0)
(292.589 8.10683 0)
(101.413 4.48995 0)
(-170.685 -2.38201 0)
(-203.77 -4.35768 0)
(-187.205 -5.12533 0)
(-146.314 -5.5994 0)
(-98.3101 -6.02855 0)
(-53.3057 -6.43255 0)
(-11.324 -6.70271 0)
(29.5403 -6.89506 0)
(70.5412 -6.92917 0)
(112.331 -6.78932 0)
(155.287 -6.24384 0)
(199.909 -5.21482 0)
(248.253 -3.67304 0)
(302.028 -1.61915 0)
(345.516 0.500735 0)
(357.682 1.86287 0)
(351.77 2.66307 0)
(282.974 2.91304 0)
(42.9208 1.55323 0)
(-91.0796 0.573795 0)
(-90.3806 0.743586 0)
(-69.3645 1.10305 0)
(-33.8731 1.56221 0)
(-2.06542 2.0616 0)
(22.0934 2.5683 0)
(42.9332 3.03979 0)
(63.8605 3.43923 0)
(86.1115 3.70507 0)
(109.42 3.77803 0)
(132.69 3.57237 0)
(154.799 3.11469 0)
(176.296 2.49386 0)
(201.417 1.79688 0)
(240.037 0.942731 0)
(294.598 0.0298359 0)
(320.839 -0.625366 0)
(318.023 -0.995096 0)
(266.848 -1.37042 0)
(84.9506 -0.932881 0)
(-27.5172 -0.388449 0)
(-30.4695 -0.261664 0)
(-18.3667 -0.206998 0)
(7.48133 -0.164614 0)
(32.4415 -0.0662558 0)
(49.2985 0.134309 0)
(61.9638 0.392607 0)
(74.551 0.672797 0)
(88.9473 0.952761 0)
(105.183 1.20443 0)
(121.913 1.41882 0)
(137.358 1.55471 0)
(150.942 1.59807 0)
(164.53 1.59593 0)
(183.294 1.58783 0)
(216.42 1.56832 0)
(258.697 1.48619 0)
(272.794 1.3643 0)
(267.993 1.21467 0)
(221.722 0.852124 0)
(88.0521 0.443039 0)
(15.5895 0.372229 0)
(13.3351 0.500209 0)
(21.2752 0.670867 0)
(40.7368 0.896034 0)
(62.8095 1.19809 0)
(77.8274 1.5344 0)
(87.5121 1.85855 0)
(96.2283 2.18111 0)
(106.34 2.4966 0)
(118.424 2.79037 0)
(131.161 3.02226 0)
(142.62 3.12511 0)
(152.691 3.12506 0)
(163.69 3.06054 0)
(180.972 2.99826 0)
(211.14 3.00916 0)
(240.722 2.91379 0)
(249.088 2.52837 0)
(241.942 2.0267 0)
(193.8 1.38072 0)
(82.4537 0.724327 0)
(32.282 0.591906 0)
(30.6365 0.627485 0)
(38.6116 0.688919 0)
(55.9769 0.859481 0)
(75.6267 1.25854 0)
(87.7591 1.88889 0)
(94 2.57639 0)
(98.7561 3.25457 0)
(104.176 3.95248 0)
(111.689 4.60357 0)
(121.313 5.19843 0)
(130.509 5.70664 0)
(138.976 6.10838 0)
(146.755 6.51215 0)
(156.844 6.86874 0)
(174.09 7.19369 0)
(200.343 7.37002 0)
(222.023 7.0551 0)
(222.69 6.39827 0)
(200.509 5.4224 0)
(132.517 4.37763 0)
(60.982 3.65241 0)
(44.9668 3.43764 0)
(47.4257 3.36058 0)
(62.9375 3.33363 0)
(85.511 3.30712 0)
(104.065 3.13376 0)
(113.601 2.74141 0)
(117.625 2.21504 0)
(121.043 1.6293 0)
(126.486 0.88469 0)
(134.269 -0.071516 0)
(142.375 -1.24141 0)
(149.253 -2.52664 0)
(156.999 -3.6076 0)
(171.809 -4.26112 0)
(195.884 -4.29382 0)
(213.405 -3.87075 0)
(205.786 -3.35874 0)
(172.303 -2.8544 0)
(100.689 -2.61443 0)
(64.1621 -2.11759 0)
(58.27 -1.43648 0)
(67.5126 -0.74327 0)
(87.7673 0.299371 0)
(107.883 1.35184 0)
(118.94 2.21082 0)
(122.597 2.73849 0)
(124.622 2.87436 0)
(128.53 2.69227 0)
(135.15 2.14796 0)
(143.938 1.19678 0)
(156.254 -0.0412904 0)
(175.694 -1.3314 0)
(191.304 -2.09269 0)
(190.633 -2.21681 0)
(163.66 -1.95124 0)
(114.026 -1.29156 0)
(81.7628 -1.00537 0)
(75.2531 -1.31021 0)
(88.3831 -1.79501 0)
(111.192 -2.40799 0)
(129.13 -2.89566 0)
(136.73 -2.88055 0)
(138.775 -2.47659 0)
(141.636 -1.84181 0)
(150.948 -0.936427 0)
(169.856 0.00992195 0)
(186.377 1.00559 0)
(182.944 2.10378 0)
(155.876 2.9042 0)
(119.611 3.61651 0)
(102.206 4.1765 0)
(105.073 4.35533 0)
(118.397 4.00799 0)
(134.79 3.48852 0)
(148.883 2.75342 0)
(147 1.40203 0)
(134.3 0.252363 0)
(121.607 -1.31042 0)
(118.833 -2.33894 0)
(126.832 -3.23594 0)
(139.579 -3.36354 0)
(142.807 -2.42903 0)
(138.886 -1.18457 0)
(131.173 0.0295758 0)
(127.852 0.347289 0)
(129.181 0.142574 0)
(134.678 -0.501628 0)
(138.749 -0.831012 0)
(138.279 -0.707245 0)
(135.457 -0.228794 0)
(132.455 0.339203 0)
(132.162 0.47325 0)
(133.496 0.401808 0)
(135.939 0.0815889 0)
(136.665 -0.0801884 0)
(136.283 -0.105498 0)
(135.047 -0.003874 0)
(134.193 0.146827 0)
(134.136 0.185975 0)
(134.417 0.170358 0)
(134.635 0.0989129 0)
(134.415 0.0486594 0)
(133.848 0.0288357 0)
(133.266 0.0506704 0)
(133.06 0.0560802 0)
(133.15 0.0466338 0)
(133.416 0.0103967 0)
(133.539 -0.0160002 0)
(133.462 -0.0240845 0)
(133.291 -0.0212967 0)
(133.184 -0.00277049 0)
(133.204 0.010186 0)
(133.322 0.0204538 0)
(133.451 0.0213689 0)
(133.468 0.0201491 0)
(133.419 0.0198613 0)
(133.283 0.0243875 0)
(133.126 0.0352439 0)
(133.031 0.0430302 0)
(133.008 0.0511494 0)
(133.024 0.0583168 0)
(133.041 0.0644228 0)
(133.071 0.0694606 0)
(133.138 0.0710093 0)
(133.266 0.0676523 0)
(133.429 0.0572368 0)
(133.44 0.0446031 0)
(133.309 0.0373503 0)
(133.109 0.0328251 0)
(132.809 0.0401838 0)
(132.5 0.0572591 0)
(132.2 0.0901636 0)
(132.007 0.133896 0)
(132.007 0.151893 0)
(132.117 0.162852 0)
(132.299 0.176293 0)
(132.498 0.174629 0)
(132.669 0.162681 0)
(132.79 0.144445 0)
(132.837 0.110293 0)
(132.8 0.101853 0)
(132.727 0.100218 0)
(132.658 0.103911 0)
(132.609 0.110595 0)
(132.575 0.116019 0)
(132.588 0.102933 0)
(132.588 0.0891862 0)
(132.55 0.0677359 0)
(132.446 0.0444901 0)
(132.266 0.0385647 0)
(132.023 0.022611 0)
(131.774 0.023298 0)
(131.55 0.0240355 0)
(131.399 0.0200647 0)
(131.307 0.022704 0)
(131.27 0.0178163 0)
(131.28 0.0190774 0)
(131.322 0.0193384 0)
(131.388 0.0110207 0)
(131.473 0.000994922 0)
(131.572 -0.0114681 0)
(131.681 -0.0237989 0)
(131.791 -0.0354591 0)
(131.885 -0.0484496 0)
(131.948 -0.0661385 0)
(131.965 -0.0794511 0)
(131.947 -0.0964582 0)
(131.887 -0.112175 0)
(131.78 -0.119535 0)
(131.635 -0.117379 0)
(131.486 -0.103667 0)
(131.367 -0.0885439 0)
(131.308 -0.071453 0)
(131.306 -0.0601047 0)
(131.333 -0.049734 0)
(131.384 -0.0391211 0)
(131.454 -0.0305117 0)
(131.53 -0.025436 0)
(131.594 -0.0252312 0)
(131.614 -0.0302348 0)
(131.6 -0.0339711 0)
(131.562 -0.040044 0)
(131.5 -0.0471197 0)
(131.404 -0.051715 0)
(131.276 -0.0515273 0)
(131.151 -0.0465609 0)
(131.08 -0.0409451 0)
(131.04 -0.0363229 0)
(131.015 -0.0317434 0)
(130.997 -0.0263464 0)
(130.985 -0.0184972 0)
(130.968 -0.00959579 0)
(130.952 0.00280864 0)
(130.919 0.0150886 0)
(130.865 0.029278 0)
(130.797 0.047838 0)
(130.749 0.0749411 0)
(130.728 0.105643 0)
(130.73 0.131205 0)
(130.748 0.156081 0)
(130.791 0.184224 0)
(130.913 0.206056 0)
(-2419.2 1.94617 0)
(-864.412 -4.85426 0)
(-297.867 17.0793 0)
(-273.501 -6.10852 0)
(-127.589 -3.43859 0)
(29.726 -2.87949 0)
(195.825 -1.22894 0)
(314.443 1.80016 0)
(348.462 3.63173 0)
(353.763 5.55703 0)
(352.285 7.39559 0)
(345.993 9.71054 0)
(334.559 11.1067 0)
(289.845 10.8375 0)
(89.627 5.36895 0)
(-175.727 -3.52925 0)
(-203.905 -6.21777 0)
(-186.915 -7.45584 0)
(-145.877 -8.15325 0)
(-98.2814 -8.73241 0)
(-53.7028 -9.21242 0)
(-12.0029 -9.45962 0)
(28.7371 -9.58402 0)
(69.7625 -9.52799 0)
(111.738 -9.23988 0)
(155.271 -8.53289 0)
(200.932 -7.27788 0)
(250.508 -5.28056 0)
(304.877 -2.39058 0)
(347.474 0.462075 0)
(359.143 2.33714 0)
(352.77 3.584 0)
(281.504 4.00268 0)
(38.8249 1.70501 0)
(-91.6134 0.267095 0)
(-90.5598 0.448283 0)
(-69.3294 0.867195 0)
(-33.9495 1.47061 0)
(-2.33306 2.1251 0)
(21.751 2.78519 0)
(42.5542 3.46524 0)
(63.4419 4.0762 0)
(85.6255 4.52763 0)
(108.837 4.77836 0)
(131.965 4.71435 0)
(153.924 4.23041 0)
(175.313 3.42175 0)
(200.352 2.38414 0)
(238.913 1.28625 0)
(293.682 0.282021 0)
(320.256 -0.565509 0)
(317.399 -1.13661 0)
(266.867 -1.5361 0)
(86.1472 -1.03782 0)
(-26.9956 -0.377012 0)
(-30.1122 -0.171213 0)
(-18.0713 -0.0557505 0)
(7.8112 0.0343817 0)
(32.9221 0.234066 0)
(49.9332 0.58123 0)
(62.7194 0.983447 0)
(75.3895 1.36562 0)
(89.7888 1.73776 0)
(105.951 2.1093 0)
(122.548 2.44744 0)
(137.829 2.68928 0)
(151.26 2.80571 0)
(164.736 2.84114 0)
(183.424 2.84593 0)
(216.473 2.87703 0)
(258.566 2.87774 0)
(272.497 2.69729 0)
(267.611 2.43624 0)
(221.011 1.88628 0)
(87.4399 0.986431 0)
(16.0023 0.783911 0)
(13.8445 0.930578 0)
(21.851 1.10019 0)
(41.4583 1.35634 0)
(63.5427 1.73193 0)
(78.502 2.15192 0)
(88.1385 2.56141 0)
(96.8057 2.96728 0)
(106.837 3.34308 0)
(118.803 3.69185 0)
(131.392 4.00188 0)
(142.683 4.15112 0)
(152.606 4.16286 0)
(163.498 4.06891 0)
(180.71 3.93498 0)
(210.867 3.83299 0)
(239.986 3.61611 0)
(248.035 3.06358 0)
(240.655 2.50743 0)
(192.316 1.8028 0)
(81.6269 1.04723 0)
(32.2292 0.921295 0)
(30.6864 1.0393 0)
(38.7121 1.27415 0)
(56.3774 1.69068 0)
(76.3701 2.37856 0)
(88.622 3.27251 0)
(94.9497 4.20322 0)
(99.8643 5.13541 0)
(105.416 6.09784 0)
(112.944 6.99996 0)
(122.487 7.8247 0)
(131.506 8.54037 0)
(139.869 9.10342 0)
(147.517 9.56277 0)
(157.506 9.85195 0)
(174.538 10.0769 0)
(200.255 10.1239 0)
(221.317 9.68378 0)
(221.261 8.87244 0)
(198.704 7.64222 0)
(130.598 6.12773 0)
(60.3697 4.88932 0)
(44.7471 4.41101 0)
(47.41 4.20452 0)
(62.9969 4.16798 0)
(85.414 4.20231 0)
(103.562 4.07047 0)
(112.644 3.60046 0)
(116.343 2.8297 0)
(119.563 1.89308 0)
(124.866 0.640192 0)
(132.524 -0.958432 0)
(140.625 -2.68115 0)
(147.657 -4.18111 0)
(155.72 -5.19942 0)
(171.294 -5.66926 0)
(196.348 -5.66677 0)
(214.479 -4.98912 0)
(206.886 -4.26348 0)
(173.255 -3.58698 0)
(101.586 -3.18537 0)
(65.4863 -2.67461 0)
(59.813 -1.91535 0)
(69.2923 -0.968152 0)
(89.8486 0.311083 0)
(109.964 1.81837 0)
(120.607 3.05347 0)
(123.714 3.76095 0)
(125.18 3.91474 0)
(128.471 3.61849 0)
(134.487 2.80898 0)
(142.794 1.46694 0)
(154.902 -0.188464 0)
(174.597 -1.87651 0)
(191.406 -3.17995 0)
(191.968 -3.43779 0)
(165.547 -3.11279 0)
(115.771 -2.21365 0)
(82.4679 -1.83126 0)
(74.9805 -2.32782 0)
(87.6126 -3.05432 0)
(110.14 -3.89457 0)
(128.237 -4.65891 0)
(136.126 -4.70822 0)
(138.323 -4.22457 0)
(141.168 -3.43608 0)
(150.369 -2.22926 0)
(169.033 -0.51716 0)
(184.866 1.73571 0)
(180.705 3.7232 0)
(153.326 5.21391 0)
(117.517 6.40143 0)
(101.293 7.22081 0)
(104.899 7.30969 0)
(118.691 6.9105 0)
(135.501 5.83473 0)
(149.561 3.71392 0)
(147.693 1.6178 0)
(134.904 0.287918 0)
(121.67 -1.34112 0)
(118.174 -2.68856 0)
(125.863 -4.17208 0)
(139.876 -5.31777 0)
(144.977 -4.45386 0)
(141.093 -2.98723 0)
(132.698 -0.928243 0)
(127.791 0.0562822 0)
(128.333 0.0972962 0)
(133.374 -0.422016 0)
(138.322 -0.88277 0)
(138.484 -0.767504 0)
(136.225 -0.310288 0)
(132.886 0.379206 0)
(132.195 0.61092 0)
(133.101 0.560318 0)
(135.345 0.214372 0)
(136.432 -0.0522938 0)
(136.221 -0.094156 0)
(135.261 0.00618796 0)
(134.308 0.196672 0)
(134.157 0.249225 0)
(134.307 0.232979 0)
(134.478 0.147402 0)
(134.306 0.0822608 0)
(133.827 0.0506095 0)
(133.285 0.078169 0)
(133.049 0.0969725 0)
(133.098 0.0905358 0)
(133.335 0.0467524 0)
(133.483 -0.0014446 0)
(133.441 -0.0199548 0)
(133.307 -0.0176669 0)
(133.209 0.00723763 0)
(133.219 0.0261074 0)
(133.318 0.0416071 0)
(133.433 0.0430575 0)
(133.447 0.0412036 0)
(133.405 0.0431344 0)
(133.283 0.0523608 0)
(133.132 0.0646733 0)
(133.033 0.0752152 0)
(133.011 0.0865507 0)
(133.025 0.0964768 0)
(133.044 0.103831 0)
(133.068 0.108419 0)
(133.129 0.108085 0)
(133.248 0.102558 0)
(133.399 0.0883117 0)
(133.411 0.0718121 0)
(133.294 0.0610137 0)
(133.107 0.0531313 0)
(132.824 0.071451 0)
(132.53 0.103523 0)
(132.246 0.147763 0)
(132.057 0.207237 0)
(132.042 0.239456 0)
(132.132 0.252495 0)
(132.291 0.270355 0)
(132.469 0.261899 0)
(132.634 0.240916 0)
(132.75 0.209439 0)
(132.803 0.166462 0)
(132.777 0.148037 0)
(132.717 0.145057 0)
(132.656 0.148327 0)
(132.61 0.156329 0)
(132.577 0.16296 0)
(132.577 0.146531 0)
(132.564 0.125429 0)
(132.516 0.0946118 0)
(132.411 0.0630015 0)
(132.24 0.0445937 0)
(132.013 0.0192273 0)
(131.774 0.0236036 0)
(131.554 0.0269208 0)
(131.399 0.0324934 0)
(131.306 0.0289833 0)
(131.27 0.0274113 0)
(131.28 0.0292986 0)
(131.318 0.0272444 0)
(131.379 0.0138342 0)
(131.459 -3.25768e-05 0)
(131.558 -0.015898 0)
(131.67 -0.0307167 0)
(131.783 -0.0468783 0)
(131.875 -0.066344 0)
(131.935 -0.0904145 0)
(131.952 -0.112601 0)
(131.939 -0.135226 0)
(131.89 -0.155971 0)
(131.799 -0.165543 0)
(131.67 -0.163325 0)
(131.528 -0.145399 0)
(131.41 -0.122766 0)
(131.347 -0.0976019 0)
(131.342 -0.0763524 0)
(131.364 -0.0605028 0)
(131.406 -0.0463397 0)
(131.467 -0.0370181 0)
(131.535 -0.0348447 0)
(131.588 -0.0389194 0)
(131.601 -0.0462967 0)
(131.586 -0.0512916 0)
(131.551 -0.0582808 0)
(131.496 -0.065081 0)
(131.41 -0.0677757 0)
(131.289 -0.0658739 0)
(131.164 -0.0590572 0)
(131.087 -0.051114 0)
(131.044 -0.0453048 0)
(131.016 -0.0393896 0)
(130.996 -0.0318905 0)
(130.984 -0.0197079 0)
(130.964 -0.00698734 0)
(130.951 0.0140604 0)
(130.92 0.0363489 0)
(130.869 0.0662751 0)
(130.805 0.104916 0)
(130.753 0.151781 0)
(130.727 0.197708 0)
(130.722 0.23804 0)
(130.739 0.277701 0)
(130.786 0.315016 0)
(130.908 0.343894 0)
(-2418.51 2.47944 0)
(-675.677 3.94561 0)
(-291.485 10.4102 0)
(-276.413 -5.16335 0)
(-128.858 -2.1687 0)
(32.6092 -0.786379 0)
(200.547 0.442867 0)
(317.284 2.74927 0)
(348.574 4.28483 0)
(353.62 6.17441 0)
(352.148 8.11472 0)
(346.035 10.4559 0)
(334.676 11.6985 0)
(287.196 11.2644 0)
(76.3028 5.30723 0)
(-181.745 -3.88166 0)
(-204.959 -6.70852 0)
(-187.07 -8.17698 0)
(-145.697 -9.00853 0)
(-98.3551 -9.61848 0)
(-54.0532 -10.1363 0)
(-12.5343 -10.4276 0)
(28.0617 -10.5494 0)
(68.936 -10.5374 0)
(110.822 -10.309 0)
(154.539 -9.76487 0)
(201.166 -8.75057 0)
(252.596 -6.45294 0)
(308.022 -2.93496 0)
(349.297 0.282458 0)
(360.255 2.37928 0)
(353.372 3.8153 0)
(278.744 4.16303 0)
(32.6825 1.10842 0)
(-92.6407 -0.658574 0)
(-91.1909 -0.482744 0)
(-69.6133 -0.0669462 0)
(-34.1776 0.548038 0)
(-2.55735 1.23082 0)
(21.6081 1.97244 0)
(42.5105 2.73333 0)
(63.411 3.44594 0)
(85.4814 4.01435 0)
(108.467 4.37602 0)
(131.337 4.41297 0)
(153.151 4.07345 0)
(174.447 3.42399 0)
(199.342 2.59468 0)
(237.712 1.71503 0)
(292.52 0.830038 0)
(319.377 -0.0824641 0)
(316.532 -0.74015 0)
(266.818 -1.27514 0)
(87.6451 -0.905717 0)
(-26.1751 -0.208651 0)
(-29.4929 0.0506896 0)
(-17.5322 0.229772 0)
(8.40508 0.374981 0)
(33.6989 0.629267 0)
(50.8869 1.04788 0)
(63.8002 1.54088 0)
(76.5314 2.04358 0)
(90.9232 2.52501 0)
(107.015 2.98759 0)
(123.485 3.40433 0)
(138.598 3.71413 0)
(151.861 3.89185 0)
(165.209 3.98695 0)
(183.826 4.07555 0)
(216.846 4.25907 0)
(258.631 4.44342 0)
(272.188 4.26039 0)
(267.037 3.90119 0)
(219.598 3.09367 0)
(86.0826 1.71356 0)
(16.3316 0.942409 0)
(14.393 0.897758 0)
(22.5709 0.984321 0)
(42.4538 1.16502 0)
(64.6165 1.443 0)
(79.5151 1.76063 0)
(89.0902 2.06518 0)
(97.6935 2.38367 0)
(107.598 2.70809 0)
(119.358 3.00648 0)
(131.717 3.24391 0)
(142.756 3.39964 0)
(152.43 3.48338 0)
(163.122 3.49199 0)
(180.16 3.42789 0)
(210.182 3.3703 0)
(238.994 3.20406 0)
(246.779 2.86339 0)
(239.292 2.53088 0)
(190.723 1.9224 0)
(80.6018 1.14049 0)
(32.2018 0.93213 0)
(30.8246 1.08688 0)
(39.0445 1.43362 0)
(57.1511 1.88316 0)
(77.5349 2.51142 0)
(90.0032 3.33993 0)
(96.5143 4.26722 0)
(101.661 5.25902 0)
(107.393 6.33805 0)
(114.908 7.41857 0)
(124.21 8.47896 0)
(132.864 9.43109 0)
(140.919 10.1557 0)
(148.299 10.6971 0)
(158.125 11.0053 0)
(175.058 11.2064 0)
(200.54 11.2387 0)
(221.148 10.8687 0)
(220.259 10.1138 0)
(197.064 8.79214 0)
(128.357 6.93584 0)
(59.4894 5.28009 0)
(44.3663 4.5921 0)
(47.2995 4.27606 0)
(63.0365 4.15088 0)
(85.4148 4.17979 0)
(103.189 4.12167 0)
(111.723 3.65093 0)
(114.927 2.76277 0)
(117.705 1.67148 0)
(122.549 0.258721 0)
(129.871 -1.45793 0)
(138.067 -3.17699 0)
(145.657 -4.57354 0)
(154.557 -5.48979 0)
(171.068 -5.97153 0)
(196.937 -5.87821 0)
(215.575 -5.07771 0)
(208.001 -4.22008 0)
(174.206 -3.46481 0)
(102.384 -3.12963 0)
(66.8319 -2.75757 0)
(61.4958 -2.0674 0)
(71.3737 -1.02153 0)
(92.5327 0.60657 0)
(112.784 2.3616 0)
(122.81 3.76102 0)
(125.106 4.46767 0)
(125.97 4.49059 0)
(128.635 4.05208 0)
(133.975 2.90571 0)
(141.72 1.24622 0)
(153.609 -0.613508 0)
(173.668 -2.43636 0)
(191.926 -3.89777 0)
(194.049 -4.29497 0)
(168.496 -4.07457 0)
(118.651 -3.00294 0)
(83.5386 -2.4778 0)
(74.523 -2.98002 0)
(86.433 -3.86913 0)
(108.59 -5.25551 0)
(126.779 -6.07354 0)
(134.913 -6.21727 0)
(137.201 -5.66477 0)
(139.99 -4.66687 0)
(149.046 -3.07725 0)
(167.334 -0.624077 0)
(182.068 2.59052 0)
(176.672 5.26721 0)
(148.774 7.27497 0)
(113.849 8.77109 0)
(99.4859 9.69338 0)
(104.508 10.2633 0)
(119.245 9.80439 0)
(136.414 7.46984 0)
(151.004 3.4698 0)
(150.216 0.331731 0)
(137.927 -0.995301 0)
(123.744 -1.50026 0)
(118.363 -2.06314 0)
(124.325 -3.37133 0)
(139.239 -5.38917 0)
(146.952 -5.39081 0)
(143.405 -4.12947 0)
(134.918 -1.91322 0)
(128.175 -0.319808 0)
(127.771 -0.0323435 0)
(132.021 -0.150564 0)
(137.586 -0.56544 0)
(138.512 -0.503064 0)
(136.777 -0.201812 0)
(133.34 0.344572 0)
(132.128 0.575259 0)
(132.687 0.537979 0)
(134.652 0.267218 0)
(136.122 0.0155547 0)
(136.098 -0.00906985 0)
(135.429 0.0701638 0)
(134.395 0.223224 0)
(134.103 0.258596 0)
(134.15 0.22455 0)
(134.281 0.136824 0)
(134.17 0.0858913 0)
(133.788 0.067996 0)
(133.292 0.102103 0)
(133.017 0.122032 0)
(133.019 0.113442 0)
(133.217 0.0679157 0)
(133.395 0.0153512 0)
(133.401 -0.00135105 0)
(133.31 0.00231753 0)
(133.227 0.0288883 0)
(133.226 0.0489791 0)
(133.302 0.0626724 0)
(133.402 0.0618659 0)
(133.421 0.0605553 0)
(133.394 0.0636051 0)
(133.291 0.0749057 0)
(133.142 0.08814 0)
(133.039 0.0989558 0)
(133.018 0.11121 0)
(133.028 0.123498 0)
(133.046 0.131005 0)
(133.062 0.136921 0)
(133.114 0.135937 0)
(133.219 0.129149 0)
(133.355 0.111205 0)
(133.367 0.088189 0)
(133.269 0.0770922 0)
(133.106 0.0692622 0)
(132.853 0.0875098 0)
(132.58 0.129648 0)
(132.311 0.186849 0)
(132.119 0.262411 0)
(132.082 0.311471 0)
(132.144 0.323392 0)
(132.271 0.338805 0)
(132.428 0.322891 0)
(132.586 0.296666 0)
(132.699 0.25416 0)
(132.76 0.206744 0)
(132.752 0.17323 0)
(132.709 0.169471 0)
(132.66 0.170938 0)
(132.618 0.17753 0)
(132.584 0.183588 0)
(132.567 0.169327 0)
(132.536 0.142266 0)
(132.475 0.10977 0)
(132.367 0.0745462 0)
(132.207 0.0473698 0)
(132.005 0.0194467 0)
(131.781 0.021441 0)
(131.575 0.0277416 0)
(131.417 0.0390158 0)
(131.32 0.0364865 0)
(131.28 0.0429105 0)
(131.289 0.0455361 0)
(131.321 0.0428172 0)
(131.373 0.0285005 0)
(131.449 0.0153065 0)
(131.547 -0.00239975 0)
(131.665 -0.0188035 0)
(131.776 -0.0401278 0)
(131.865 -0.0645433 0)
(131.921 -0.0925599 0)
(131.943 -0.121648 0)
(131.933 -0.147759 0)
(131.893 -0.171773 0)
(131.816 -0.18805 0)
(131.706 -0.189618 0)
(131.577 -0.171924 0)
(131.462 -0.145165 0)
(131.399 -0.114895 0)
(131.391 -0.0883748 0)
(131.407 -0.0686476 0)
(131.44 -0.053771 0)
(131.49 -0.0451695 0)
(131.545 -0.0430236 0)
(131.584 -0.0459991 0)
(131.587 -0.0543151 0)
(131.571 -0.0605327 0)
(131.537 -0.0686821 0)
(131.485 -0.0770657 0)
(131.404 -0.0832512 0)
(131.294 -0.0840278 0)
(131.174 -0.0758865 0)
(131.093 -0.0647625 0)
(131.047 -0.056346 0)
(131.016 -0.0487461 0)
(130.995 -0.0402111 0)
(130.984 -0.0267476 0)
(130.965 -0.0128168 0)
(130.959 0.0123104 0)
(130.938 0.0417697 0)
(130.903 0.08251 0)
(130.851 0.135625 0)
(130.801 0.198929 0)
(130.771 0.262495 0)
(130.758 0.320741 0)
(130.771 0.376694 0)
(130.817 0.42293 0)
(130.931 0.461391 0)
(-2420.6 2.87079 0)
(-879.886 -19.4719 0)
(-284.714 6.2599 0)
(-269.882 -7.00762 0)
(-125.634 -0.164249 0)
(33.7634 1.8143 0)
(201.608 1.7536 0)
(318.31 2.63273 0)
(348.496 3.69554 0)
(353.398 5.06947 0)
(352.083 6.6985 0)
(346.316 8.69917 0)
(335.126 9.80066 0)
(284.931 9.42457 0)
(63.8214 4.59638 0)
(-187.127 -3.55872 0)
(-206.295 -6.10535 0)
(-187.476 -7.47714 0)
(-145.725 -8.3165 0)
(-98.65 -8.94667 0)
(-54.6604 -9.48702 0)
(-13.3474 -9.81446 0)
(27.103 -10.0294 0)
(67.8189 -10.115 0)
(109.634 -10.0157 0)
(153.706 -9.65894 0)
(201.502 -8.60733 0)
(254.806 -6.25289 0)
(311.134 -2.9078 0)
(350.322 -0.0937729 0)
(360.823 1.56702 0)
(353.333 2.73912 0)
(275.005 2.63263 0)
(25.5813 -0.57494 0)
(-93.9439 -2.28323 0)
(-91.9656 -2.14048 0)
(-69.967 -1.76971 0)
(-34.4302 -1.19978 0)
(-2.77517 -0.546472 0)
(21.5042 0.203107 0)
(42.5065 0.976258 0)
(63.4333 1.68524 0)
(85.4516 2.25348 0)
(108.345 2.65848 0)
(131.124 2.91031 0)
(152.776 2.83677 0)
(173.841 2.53934 0)
(198.516 2.23224 0)
(236.732 1.95005 0)
(291.439 1.53028 0)
(318.356 0.816551 0)
(315.529 0.20315 0)
(266.467 -0.346838 0)
(88.8607 -0.232637 0)
(-25.2797 0.378503 0)
(-28.8205 0.700257 0)
(-16.9605 0.948717 0)
(9.01951 1.15725 0)
(34.5093 1.44947 0)
(51.8845 1.90904 0)
(64.9198 2.44541 0)
(77.7236 2.95825 0)
(92.14 3.44498 0)
(108.203 3.90964 0)
(124.58 4.34238 0)
(139.54 4.69959 0)
(152.637 4.95004 0)
(165.866 5.15996 0)
(184.476 5.39954 0)
(217.604 5.8149 0)
(258.903 6.2812 0)
(271.745 6.13789 0)
(266.252 5.69573 0)
(217.559 4.65928 0)
(83.7954 2.61066 0)
(16.2293 1.42844 0)
(14.5771 1.06654 0)
(22.9267 0.808135 0)
(43.0405 0.717891 0)
(65.2106 0.762034 0)
(80.016 0.814529 0)
(89.5545 0.853382 0)
(98.147 0.893858 0)
(108.025 0.937302 0)
(119.717 0.98907 0)
(131.963 1.05495 0)
(142.91 1.13565 0)
(152.537 1.24661 0)
(163.188 1.41168 0)
(180.129 1.60475 0)
(209.985 1.82202 0)
(238.361 1.93137 0)
(245.902 1.96209 0)
(238.226 1.89475 0)
(189.16 1.53157 0)
(79.3536 0.870683 0)
(31.9994 0.666071 0)
(30.8227 0.808611 0)
(39.2186 1.04321 0)
(57.5918 1.34611 0)
(78.1829 1.72099 0)
(90.8596 2.18823 0)
(97.6135 2.75795 0)
(103.05 3.39479 0)
(109.092 4.12114 0)
(116.868 4.94255 0)
(126.264 6.04364 0)
(134.867 7.32959 0)
(142.595 8.55075 0)
(149.552 9.58442 0)
(159.023 10.2235 0)
(175.733 10.6505 0)
(200.841 10.8628 0)
(220.872 10.6075 0)
(219.258 9.81958 0)
(195.334 8.52329 0)
(125.636 6.55416 0)
(58.3871 4.66179 0)
(43.9162 3.89806 0)
(47.23 3.52708 0)
(63.2008 3.31861 0)
(85.5937 3.18756 0)
(102.986 2.8542 0)
(110.864 2.15942 0)
(113.56 1.27801 0)
(116.003 0.396336 0)
(120.648 -0.573203 0)
(127.96 -1.66116 0)
(136.347 -2.79513 0)
(144.241 -3.80495 0)
(153.508 -4.60919 0)
(170.474 -5.01824 0)
(197.225 -5.01096 0)
(216.604 -4.25022 0)
(208.973 -3.35562 0)
(174.863 -2.55808 0)
(102.816 -2.28104 0)
(68.0393 -2.00382 0)
(63.2602 -1.36193 0)
(73.7051 -0.608704 0)
(95.5884 0.795184 0)
(115.864 2.58163 0)
(125.101 3.91366 0)
(126.546 4.25725 0)
(126.777 4.08059 0)
(128.841 3.48291 0)
(133.526 2.33435 0)
(140.821 0.757764 0)
(152.695 -0.9637 0)
(173.257 -2.6249 0)
(192.999 -3.9695 0)
(196.558 -4.59759 0)
(172.045 -4.54796 0)
(122.081 -3.56696 0)
(84.8327 -2.99458 0)
(74.0677 -3.58194 0)
(85.0552 -4.64504 0)
(106.618 -6.10625 0)
(124.912 -7.05249 0)
(133.187 -7.26964 0)
(135.425 -6.68613 0)
(138.075 -5.52819 0)
(147.031 -3.54754 0)
(165.084 -0.459852 0)
(178.515 3.56269 0)
(171.675 6.53418 0)
(143.136 8.7035 0)
(109.703 10.2737 0)
(97.718 11.5146 0)
(104.471 12.363 0)
(120.291 11.2189 0)
(137.636 7.86302 0)
(153.045 2.47163 0)
(154.542 -1.88152 0)
(143.328 -3.23909 0)
(128.142 -2.9089 0)
(119.733 -2.29583 0)
(122.71 -2.68675 0)
(137.25 -4.48726 0)
(147.685 -5.2003 0)
(145.11 -4.36007 0)
(137.059 -2.43508 0)
(128.921 -0.541838 0)
(127.588 0.0830031 0)
(130.904 0.179203 0)
(136.611 -0.168416 0)
(138.284 -0.245094 0)