/*--------------------------------*- C++ -*----------------------------------*\
| =========                 |                                                 |
| \\      /  F ield         | OpenFOAM: The Open Source CFD Toolbox           |
|  \\    /   O peration     | Version:  2306                                  |
|   \\  /    A nd           | Website:  www.openfoam.com                      |
|    \\/     M anipulation  |                                                 |
\*---------------------------------------------------------------------------*/
FoamFile
{
    version     2.0;
    format      ascii;
    arch        "LSB;label=32;scalar=64";
    class       volScalarField;
    location    "0.2";
    object      rho;
}
// * * * * * * * * * * * * * * * * * * * * * * * * * * * * * * * * * * * * * //

dimensions      [1 -3 0 0 0 0 0];

internalField   nonuniform List<scalar> 
6000
(
59.6169
1.44959
0.162758
0.158902
0.152349
0.156429
0.162348
0.175602
0.19082
0.208001
0.227747
0.250007
0.272223
0.287933
0.296136
0.302436
0.304427
0.305023
0.302208
0.275432
0.200881
0.170288
0.167403
0.170194
0.174401
0.178529
0.183579
0.190806
0.200064
0.20988
0.217887
0.223014
0.226288
0.229027
0.232896
0.240386
0.253531
0.269757
0.28217
0.286095
0.281574
0.258694
0.202493
0.180061
0.17933
0.181686
0.185538
0.188328
0.190297
0.192508
0.195879
0.200721
0.206369
0.211546
0.215142
0.217143
0.218413
0.219826
0.222273
0.226123
0.231179
0.238935
0.245286
0.243498
0.236873
0.211858
0.183438
0.179831
0.182706
0.188076
0.193834
0.197597
0.199707
0.201221
0.202949
0.205185
0.207806
0.210553
0.213242
0.215468
0.216996
0.21791
0.218948
0.222318
0.229399
0.23586
0.238466
0.234154
0.217534
0.191163
0.181526
0.179803
0.181016
0.18395
0.187395
0.190794
0.194306
0.197822
0.201047
0.204292
0.207444
0.210136
0.211806
0.212164
0.211527
0.210524
0.209842
0.210633
0.214399
0.22076
0.224283
0.224501
0.21603
0.196349
0.184636
0.182163
0.182626
0.185396
0.189154
0.191968
0.194309
0.19613
0.197487
0.198872
0.200532
0.202487
0.204447
0.20563
0.205818
0.205226
0.204525
0.204625
0.20627
0.207779
0.209288
0.208687
0.201555
0.186959
0.178909
0.176686
0.175947
0.176822
0.178889
0.181625
0.183927
0.186073
0.187487
0.188823
0.19077
0.193612
0.196903
0.199403
0.200687
0.201186
0.201186
0.201638
0.204002
0.207576
0.20917
0.210362
0.206274
0.195648
0.188662
0.187236
0.186969
0.188391
0.190349
0.191344
0.191599
0.191572
0.19144
0.191287
0.191143
0.191033
0.190705
0.190294
0.189573
0.188491
0.187449
0.186505
0.186461
0.188294
0.19141
0.192256
0.192369
0.188822
0.17972
0.173767
0.172547
0.172586
0.173893
0.175972
0.177608
0.179335
0.180818
0.182602
0.184135
0.186072
0.188677
0.191106
0.192143
0.192359
0.192539
0.192968
0.194089
0.196152
0.198318
0.198716
0.198753
0.194594
0.183621
0.176406
0.175204
0.174586
0.174594
0.175064
0.175482
0.175833
0.176442
0.177396
0.178879
0.180519
0.182837
0.185935
0.187871
0.187926
0.186973
0.185604
0.184545
0.183864
0.184006
0.184796
0.185123
0.184443
0.182832
0.17841
0.17348
0.172447
0.173294
0.174897
0.176979
0.178389
0.178502
0.178162
0.177766
0.177615
0.177968
0.178904
0.180568
0.182077
0.182157
0.181118
0.179634
0.178017
0.177057
0.176669
0.176687
0.176748
0.176121
0.174877
0.171834
0.167336
0.166006
0.166537
0.167604
0.16896
0.169562
0.169271
0.168068
0.166265
0.164786
0.16388
0.163536
0.163936
0.165209
0.166899
0.16799
0.168598
0.169375
0.170859
0.173436
0.176655
0.178836
0.179526
0.178175
0.173468
0.165685
0.161607
0.160303
0.159717
0.160015
0.160727
0.161249
0.161435
0.161662
0.161971
0.162558
0.163351
0.164463
0.167102
59.6208
1.40509
0.163936
0.158375
0.151887
0.155348
0.160937
0.173868
0.18907
0.206405
0.226726
0.25001
0.2742
0.290555
0.297042
0.299485
0.299964
0.299529
0.297928
0.273207
0.200451
0.16931
0.166741
0.169706
0.174288
0.178865
0.184246
0.191547
0.200308
0.209137
0.216392
0.221377
0.224862
0.227953
0.232355
0.240313
0.253449
0.269538
0.282152
0.28611
0.28154
0.259659
0.203847
0.179957
0.179366
0.181844
0.185859
0.188778
0.190723
0.192812
0.195919
0.200432
0.2058
0.21093
0.214748
0.217056
0.218573
0.220079
0.222433
0.226137
0.231337
0.239594
0.246544
0.245045
0.238525
0.213625
0.184518
0.1805
0.182864
0.187584
0.192885
0.196542
0.198755
0.2005
0.202566
0.205154
0.208028
0.210861
0.213425
0.215381
0.216579
0.217148
0.217911
0.221033
0.228201
0.236086
0.239207
0.235642
0.219524
0.192472
0.182252
0.180607
0.181928
0.185115
0.188762
0.191828
0.194501
0.197064
0.199823
0.20286
0.206008
0.208802
0.210729
0.21148
0.211265
0.210721
0.21046
0.211627
0.215571
0.221738
0.224804
0.224508
0.215879
0.196046
0.184554
0.182289
0.182873
0.185684
0.189457
0.192351
0.19452
0.195885
0.196872
0.19804
0.199688
0.20179
0.204029
0.205552
0.206018
0.205632
0.205114
0.205319
0.207035
0.208534
0.209884
0.20924
0.202253
0.187592
0.179336
0.177241
0.176655
0.177742
0.180044
0.182849
0.185017
0.186905
0.187948
0.188905
0.190514
0.193179
0.196458
0.19914
0.20063
0.201381
0.201628
0.202193
0.204467
0.208003
0.209254
0.210071
0.206071
0.195368
0.187899
0.18662
0.186332
0.187619
0.189447
0.190399
0.190482
0.190318
0.190223
0.190392
0.190767
0.19117
0.191559
0.19139
0.190848
0.189819
0.188746
0.187948
0.187995
0.189738
0.192324
0.192718
0.192413
0.188366
0.17909
0.173751
0.17283
0.173101
0.174678
0.176916
0.178496
0.17985
0.180902
0.182315
0.183656
0.185538
0.188169
0.190544
0.191467
0.191566
0.191649
0.19202
0.193015
0.195041
0.197047
0.197556
0.197076
0.193114
0.183089
0.176063
0.175063
0.174685
0.174984
0.175536
0.175805
0.175766
0.175985
0.176558
0.177554
0.178969
0.181153
0.184189
0.186306
0.186541
0.185871
0.184851
0.184152
0.183727
0.184061
0.185168
0.185664
0.185087
0.18354
0.179073
0.174003
0.172889
0.173658
0.175082
0.177028
0.178219
0.178211
0.177765
0.177221
0.176942
0.177052
0.177696
0.17918
0.180927
0.181407
0.180785
0.179626
0.178309
0.177503
0.177163
0.177196
0.177047
0.176248
0.174748
0.171251
0.166662
0.165456
0.165853
0.166776
0.168123
0.168731
0.168568
0.167682
0.166279
0.165184
0.164498
0.164261
0.164693
0.166029
0.167813
0.168966
0.16956
0.170185
0.17131
0.173264
0.175666
0.177085
0.17743
0.176153
0.171899
0.164889
0.161332
0.160344
0.160014
0.160497
0.161396
0.161901
0.162012
0.161997
0.162089
0.162357
0.162837
0.163525
0.165717
59.3397
1.61674
0.164921
0.156898
0.1505
0.153766
0.159742
0.172851
0.188424
0.206182
0.227145
0.251785
0.278249
0.294228
0.297643
0.295749
0.29337
0.291841
0.291141
0.269942
0.200809
0.168148
0.165845
0.169206
0.174504
0.179723
0.185443
0.192326
0.199866
0.207193
0.213456
0.21863
0.222958
0.227067
0.232392
0.240562
0.253355
0.268829
0.28128
0.284915
0.280331
0.260733
0.206252
0.179979
0.179617
0.182251
0.18647
0.189504
0.191358
0.193095
0.195664
0.199616
0.204674
0.209946
0.214285
0.217107
0.218865
0.22034
0.222448
0.225899
0.231253
0.240052
0.247893
0.247092
0.241082
0.216673
0.186146
0.181352
0.182885
0.186656
0.191254
0.194717
0.197235
0.199623
0.202338
0.205414
0.208571
0.211396
0.213644
0.215209
0.215911
0.216008
0.216457
0.219155
0.226237
0.235552
0.239784
0.237597
0.222886
0.194953
0.18357
0.18213
0.183736
0.187202
0.190642
0.192872
0.194348
0.195848
0.198004
0.200927
0.204195
0.207225
0.209456
0.210611
0.210861
0.210781
0.211041
0.212618
0.216858
0.222766
0.225137
0.224344
0.215458
0.195426
0.184482
0.182613
0.18341
0.186269
0.19003
0.192767
0.194617
0.195492
0.196143
0.197078
0.198677
0.200958
0.203553
0.205446
0.206191
0.20601
0.205545
0.205734
0.207603
0.209623
0.210965
0.210503
0.203698
0.188791
0.180109
0.178182
0.177832
0.179233
0.18186
0.184715
0.186582
0.187859
0.188413
0.188988
0.190191
0.192539
0.19578
0.198658
0.200468
0.201658
0.202224
0.202866
0.204942
0.208282
0.209067
0.209161
0.205511
0.194848
0.187015
0.186041
0.185799
0.187042
0.188664
0.189265
0.189203
0.189023
0.188873
0.188972
0.189613
0.190839
0.191964
0.19226
0.192031
0.191549
0.19098
0.190474
0.190583
0.19206
0.193821
0.193593
0.192727
0.187967
0.178613
0.174017
0.173556
0.174043
0.175822
0.178098
0.179438
0.18011
0.180871
0.181828
0.18296
0.184694
0.187345
0.189841
0.190766
0.190803
0.190865
0.191231
0.192
0.193555
0.19514
0.195426
0.194295
0.190519
0.182047
0.175366
0.174443
0.17454
0.175315
0.176152
0.176196
0.175773
0.175448
0.175513
0.176039
0.177066
0.178937
0.181939
0.184564
0.184994
0.184528
0.1838
0.183332
0.183279
0.183992
0.185654
0.186434
0.186082
0.184672
0.180101
0.174733
0.173478
0.174144
0.175359
0.17715
0.17801
0.177821
0.177209
0.176501
0.176026
0.175853
0.176205
0.177465
0.179438
0.180445
0.180167
0.179396
0.178562
0.178119
0.17802
0.178094
0.177737
0.176833
0.174966
0.170739
0.165851
0.16452
0.164613
0.165306
0.166673
0.167447
0.167441
0.167093
0.166295
0.165574
0.165076
0.16496
0.165511
0.167079
0.169231
0.170557
0.17106
0.171443
0.171999
0.172961
0.17432
0.174924
0.174792
0.173561
0.16959
0.163519
0.160793
0.160259
0.16032
0.16121
0.162461
0.162878
0.162919
0.162575
0.162171
0.161999
0.16207
0.162349
0.164099
59.2723
1.62084
0.166632
0.156267
0.149733
0.152078
0.158838
0.171897
0.187817
0.206616
0.228527
0.254391
0.280924
0.295673
0.296756
0.29272
0.287853
0.284479
0.283133
0.265202
0.200054
0.166343
0.165173
0.168898
0.174855
0.180725
0.18661
0.192735
0.198863
0.204707
0.210049
0.215214
0.220316
0.225581
0.231997
0.240451
0.252667
0.267277
0.279948
0.283724
0.279164
0.262115
0.209737
0.180227
0.179972
0.182845
0.187345
0.19054
0.19225
0.193542
0.195431
0.198651
0.203318
0.208696
0.21356
0.216975
0.219053
0.220612
0.222502
0.22562
0.231056
0.240202
0.249175
0.249542
0.244237
0.220722
0.188521
0.182542
0.18329
0.186104
0.189821
0.192799
0.195287
0.198133
0.201546
0.205281
0.208831
0.21172
0.213704
0.214773
0.214876
0.214659
0.21499
0.217452
0.224407
0.234608
0.239989
0.239396
0.226949
0.198772
0.185678
0.184551
0.186178
0.1895
0.192293
0.193527
0.19402
0.194672
0.196182
0.198773
0.202037
0.205288
0.207913
0.209597
0.210433
0.210861
0.211644
0.213691
0.218238
0.223781
0.225319
0.224033
0.214846
0.194589
0.184293
0.182931
0.18408
0.187088
0.190805
0.193318
0.194616
0.194796
0.194992
0.195684
0.197272
0.199777
0.20276
0.205052
0.206101
0.20601
0.205597
0.205804
0.207713
0.210859
0.212305
0.212432
0.206239
0.191116
0.181481
0.179765
0.179746
0.18148
0.184413
0.187106
0.188471
0.188867
0.188814
0.188921
0.189721
0.191859
0.195262
0.198359
0.200529
0.202003
0.202724
0.203229
0.205006
0.208067
0.208806
0.208316
0.204796
0.194028
0.18568
0.184759
0.184489
0.185466
0.186893
0.187281
0.187354
0.187393
0.187484
0.18781
0.188666
0.190365
0.192236
0.193364
0.193408
0.193579
0.193751
0.19368
0.193945
0.194877
0.19552
0.194614
0.193147
0.187699
0.17848
0.174651
0.174713
0.175398
0.177195
0.179247
0.180199
0.180528
0.180862
0.181473
0.182293
0.183732
0.186304
0.188853
0.189823
0.189788
0.189836
0.190134
0.190642
0.191631
0.192839
0.193055
0.191831
0.188662
0.181448
0.174694
0.173497
0.173908
0.175036
0.176297
0.176435
0.175846
0.17496
0.174421
0.174431
0.175033
0.176542
0.179341
0.182146
0.182993
0.18289
0.182512
0.182245
0.182473
0.18371
0.185997
0.18704
0.186902
0.185609
0.180703
0.174838
0.173498
0.173993
0.174992
0.176483
0.176955
0.176611
0.176028
0.17528
0.174729
0.174353
0.174471
0.17567
0.177946
0.179386
0.179383
0.178936
0.178603
0.178611
0.178894
0.179055
0.178662
0.177702
0.175509
0.170531
0.165201
0.16361
0.163266
0.163618
0.164837
0.166012
0.166203
0.166227
0.166012
0.165721
0.165568
0.165812
0.166791
0.168819
0.171276
0.172526
0.172673
0.17258
0.172396
0.172393
0.172696
0.172497
0.171907
0.170587
0.167038
0.16197
0.159984
0.159915
0.160338
0.161751
0.163173
0.163553
0.163465
0.16281
0.161917
0.161317
0.16098
0.160848
0.162258
59.4593
1.39991
0.16849
0.156223
0.149624
0.151024
0.158452
0.17191
0.188689
0.208396
0.230866
0.256719
0.282046
0.294957
0.295308
0.290249
0.284346
0.279145
0.275802
0.259126
0.197877
0.16396
0.164791
0.169184
0.175824
0.182034
0.18755
0.192725
0.197669
0.202335
0.207028
0.21215
0.217738
0.223918
0.231152
0.239807
0.251025
0.26439
0.277338
0.281835
0.277636
0.263176
0.213636
0.180823
0.180255
0.183494
0.188326
0.191719
0.193234
0.194033
0.195269
0.197801
0.201993
0.207251
0.212424
0.216394
0.218955
0.22073
0.222462
0.225279
0.230592
0.239803
0.249844
0.251553
0.247088
0.224941
0.190958
0.183422
0.183622
0.185775
0.188905
0.191294
0.193375
0.196209
0.200155
0.204745
0.208856
0.211902
0.213531
0.214075
0.213817
0.213512
0.213924
0.216213
0.222866
0.233432
0.239564
0.240566
0.230888
0.203774
0.188499
0.187358
0.188576
0.191322
0.193378
0.193877
0.193744
0.19377
0.194736
0.196945
0.200094
0.203562
0.206614
0.208772
0.210054
0.210918
0.212069
0.214497
0.219392
0.224556
0.225204
0.223431
0.213907
0.19353
0.183947
0.183164
0.184627
0.187917
0.191547
0.19387
0.194495
0.194269
0.194049
0.194444
0.195939
0.198484
0.201465
0.203867
0.205126
0.205346
0.205215
0.205478
0.207433
0.211558
0.213501
0.214402
0.209491
0.1949
0.183647
0.181946
0.182164
0.184152
0.187255
0.189467
0.190137
0.189774
0.189211
0.188949
0.189523
0.191601
0.195164
0.198385
0.20089
0.202448
0.203229
0.203618
0.205178
0.207956
0.20879
0.207795
0.203877
0.192597
0.183507
0.182594
0.182493
0.183351
0.184573
0.18497
0.185425
0.185919
0.186656
0.187338
0.188386
0.190379
0.192704
0.194186
0.194664
0.195261
0.196133
0.196586
0.197197
0.197959
0.197865
0.196325
0.194118
0.187823
0.178897
0.175764
0.176109
0.176838
0.17842
0.180048
0.180581
0.180614
0.180659
0.180954
0.181468
0.182733
0.185173
0.187737
0.188749
0.188784
0.189053
0.189212
0.189428
0.189991
0.190801
0.190962
0.189647
0.186773
0.18063
0.174071
0.172681
0.173262
0.174443
0.175975
0.176357
0.17581
0.174775
0.173871
0.173444
0.173679
0.174777
0.177211
0.180039
0.18117
0.181382
0.181416
0.181412
0.181861
0.183504
0.186126
0.187183
0.187104
0.18571
0.180412
0.174412
0.173217
0.173452
0.174273
0.17542
0.17569
0.175251
0.174613
0.173851
0.173328
0.172877
0.17288
0.174192
0.176654
0.178239
0.178418
0.178304
0.178326
0.178592
0.179304
0.179827
0.179656
0.178765
0.176282
0.170611
0.164727
0.162898
0.162189
0.162237
0.163183
0.164395
0.16477
0.164896
0.165033
0.165171
0.165611
0.166516
0.168227
0.170889
0.173362
0.174085
0.17385
0.173158
0.172263
0.171531
0.171122
0.17033
0.16946
0.168123
0.165121
0.160808
0.159078
0.159238
0.159966
0.161618
0.163299
0.163867
0.163738
0.162901
0.161549
0.16054
0.159892
0.159404
0.160697
59.4139
1.44288
0.170801
0.156797
0.149551
0.150277
0.157865
0.172059
0.189839
0.210416
0.233128
0.258343
0.282497
0.293826
0.293257
0.288217
0.282444
0.276097
0.270374
0.253
0.1948
0.162269
0.164527
0.170261
0.177284
0.183213
0.187975
0.192317
0.196339
0.200367
0.204934
0.210142
0.215964
0.222589
0.23004
0.238447
0.248408
0.260408
0.273487
0.279482
0.275997
0.263625
0.217174
0.181534
0.180238
0.183944
0.189134
0.192751
0.194136
0.194605
0.19539
0.197399
0.201041
0.205969
0.211232
0.215687
0.218763
0.22086
0.222617
0.225129
0.230044
0.239055
0.249893
0.252626
0.249054
0.228681
0.193606
0.184572
0.184337
0.186035
0.188778
0.190704
0.192158
0.194425
0.198367
0.20347
0.208412
0.211666
0.213077
0.213371
0.213065
0.212771
0.2133
0.215571
0.221747
0.232078
0.238939
0.241005
0.233776
0.208825
0.191139
0.189606
0.190268
0.192371
0.193955
0.194145
0.193709
0.193431
0.193926
0.195689
0.198688
0.202302
0.205692
0.208226
0.209828
0.210925
0.212202
0.214695
0.219557
0.224422
0.224728
0.222412
0.212687
0.192405
0.183343
0.183019
0.184721
0.188374
0.19207
0.194301
0.194614
0.194022
0.193409
0.193524
0.19475
0.197119
0.199975
0.202428
0.203763
0.204079
0.204119
0.204572
0.206787
0.211484
0.214395
0.215908
0.212574
0.19959
0.186687
0.18471
0.184977
0.186834
0.189769
0.191446
0.191548
0.190851
0.189976
0.189504
0.190067
0.192176
0.195874
0.199038
0.201612
0.203029
0.20368
0.203935
0.205175
0.207366
0.20811
0.206746
0.202416
0.190677
0.180937
0.179616
0.179513
0.180173
0.181465
0.182588
0.183748
0.184803
0.186182
0.187207
0.188454
0.190438
0.192924
0.19475
0.195559
0.196363
0.197629
0.198532
0.199483
0.200393
0.20045
0.198879
0.196601
0.189497
0.180183
0.17717
0.177577
0.178193
0.179386
0.18058
0.180889
0.180686
0.180424
0.180382
0.180715
0.181849
0.184035
0.186434
0.187504
0.187957
0.1884
0.188539
0.188528
0.18894
0.18945
0.189455
0.187919
0.18519
0.179553
0.173233
0.17177
0.172373
0.173638
0.175459
0.176076
0.17566
0.174735
0.17381
0.173279
0.173268
0.174029
0.176026
0.178601
0.179911
0.180459
0.180665
0.180992
0.181728
0.183556
0.18611
0.186891
0.186664
0.184821
0.178543
0.172452
0.171534
0.171622
0.172232
0.173128
0.173418
0.17299
0.172499
0.172013
0.17181
0.171609
0.171897
0.173282
0.175549
0.177042
0.177313
0.177349
0.177621
0.178144
0.17919
0.180206
0.180514
0.17983
0.177233
0.171054
0.164608
0.162597
0.16173
0.161522
0.162214
0.163307
0.163827
0.164065
0.164347
0.164741
0.165619
0.16716
0.169669
0.172762
0.174702
0.174971
0.17445
0.17319
0.171744
0.1705
0.169581
0.168719
0.167872
0.166755
0.164316
0.160277
0.158407
0.158587
0.159501
0.161225
0.162926
0.16355
0.163341
0.162345
0.160814
0.159609
0.158819
0.158175
0.159535
59.1728
1.71429
0.172277
0.157681
0.149619
0.149832
0.157543
0.172907
0.191816
0.212786
0.23517
0.26008
0.283189
0.293258
0.292094
0.286794
0.281038
0.274106
0.26676
0.248482
0.19237
0.161134
0.163857
0.171536
0.178559
0.183809
0.187839
0.191428
0.195003
0.199226
0.204091
0.209373
0.215274
0.221829
0.228992
0.236711
0.245428
0.256143
0.268978
0.276266
0.273852
0.263227
0.219528
0.182127
0.180367
0.184422
0.189882
0.19361
0.194889
0.195171
0.195771
0.197498
0.20071
0.205238
0.210315
0.215029
0.218685
0.221174
0.223038
0.225216
0.229514
0.238134
0.249333
0.252645
0.249834
0.23124
0.195885
0.185564
0.185389
0.186841
0.189397
0.191127
0.192038
0.19349
0.196687
0.201656
0.207118
0.210959
0.212558
0.212938
0.212775
0.212586
0.213294
0.215651
0.221345
0.230834
0.237969
0.240574
0.235003
0.212591
0.19305
0.190954
0.191155
0.192726
0.194152
0.194326
0.193838
0.19346
0.193756
0.195174
0.197921
0.201486
0.205166
0.208029
0.209795
0.210874
0.211965
0.214209
0.218826
0.223382
0.223466
0.221104
0.211553
0.191631
0.182845
0.182768
0.184561
0.18819
0.19195
0.194132
0.194346
0.19365
0.192913
0.192912
0.193966
0.196172
0.198934
0.201208
0.202515
0.202763
0.202708
0.203161
0.205534
0.210867
0.214781
0.216703
0.214822
0.203806
0.189872
0.18709
0.187267
0.188859
0.191414
0.192815
0.192789
0.192032
0.191177
0.190769
0.191497
0.193763
0.197457
0.200341
0.202613
0.203676
0.203896
0.20384
0.204759
0.206617
0.206958
0.205218
0.200264
0.188232
0.177992
0.176192
0.175992
0.176827
0.178734
0.180755
0.182508
0.184065
0.185754
0.186917
0.188236
0.190203
0.192815
0.194928
0.196113
0.197042
0.19823
0.199332
0.200501
0.201668
0.202251
0.201208
0.199623
0.193194
0.183155
0.179322
0.179266
0.179511
0.180309
0.181151
0.181225
0.180783
0.180291
0.180023
0.180263
0.181149
0.182893
0.185093
0.186369
0.187132
0.187708
0.187872
0.188061
0.188509
0.188716
0.188532
0.186872
0.184067
0.178418
0.172372
0.171026
0.171537
0.172716
0.174624
0.175432
0.17527
0.174671
0.174038
0.173676
0.173715
0.174375
0.176093
0.17837
0.179606
0.180123
0.180534
0.181134
0.182134
0.183934
0.185687
0.186035
0.185519
0.182581
0.174779
0.168942
0.168234
0.168302
0.168799
0.169857
0.170636
0.170658
0.170556
0.170559
0.170612
0.170783
0.171229
0.172522
0.174571
0.175893
0.176165
0.176186
0.1765
0.17721
0.17858
0.180259
0.181062
0.180812
0.178335
0.171932
0.164973
0.162765
0.161766
0.161432
0.162008
0.163028
0.163607
0.163897
0.164202
0.164756
0.165865
0.167737
0.17059
0.173511
0.174945
0.175094
0.174341
0.172725
0.170934
0.169573
0.168722
0.168228
0.167501
0.166542
0.164361
0.160297
0.158027
0.15809
0.158917
0.160385
0.161905
0.162455
0.162179
0.161165
0.159794
0.158812
0.158136
0.157584
0.15912
59.4409
1.42201
0.170684
0.157471
0.149432
0.150574
0.158844
0.175483
0.19481
0.215497
0.23765
0.262043
0.284415
0.293428
0.291924
0.286284
0.279928
0.272617
0.26476
0.246489
0.191484
0.160523
0.163173
0.171951
0.178927
0.183723
0.187089
0.190235
0.194098
0.198812
0.204152
0.209815
0.215767
0.221865
0.228169
0.234908
0.242536
0.252254
0.264663
0.272444
0.270879
0.26152
0.220111
0.18261
0.180543
0.184937
0.19046
0.194114
0.195437
0.195836
0.19645
0.197991
0.200931
0.205167
0.210056
0.214797
0.218759
0.221641
0.223693
0.225667
0.229278
0.237073
0.248011
0.251318
0.249163
0.232497
0.197818
0.186384
0.186612
0.18809
0.190625
0.192193
0.192846
0.193634
0.195831
0.200008
0.205195
0.209822
0.212131
0.212842
0.212943
0.213098
0.21409
0.216641
0.2218
0.230185
0.236725
0.238983
0.234556
0.21459
0.194297
0.191614
0.191535
0.192721
0.194111
0.194464
0.194142
0.193808
0.194017
0.195204
0.197667
0.201193
0.205034
0.208127
0.209925
0.21082
0.211545
0.213399
0.217437
0.221686
0.221755
0.219645
0.21055
0.191259
0.18239
0.182188
0.18386
0.187382
0.191279
0.193531
0.193826
0.19324
0.192618
0.192578
0.193525
0.195671
0.19831
0.200547
0.201739
0.201851
0.201594
0.20184
0.204123
0.209814
0.214814
0.216943
0.216056
0.206664
0.192221
0.188464
0.188539
0.189913
0.192287
0.193639
0.193689
0.193081
0.192477
0.192422
0.193425
0.195821
0.199237
0.201585
0.20337
0.204041
0.203978
0.203687
0.204318
0.205455
0.205141
0.20312
0.197602
0.185242
0.17532
0.17351
0.173333
0.174504
0.17703
0.179622
0.181616
0.183395
0.185195
0.186507
0.187895
0.189955
0.192791
0.195156
0.196417
0.197191
0.198105
0.199138
0.200333
0.201848
0.203024
0.202504
0.201562
0.196448
0.186653
0.181848
0.181474
0.181119
0.181411
0.181874
0.181763
0.18113
0.180465
0.180094
0.180193
0.180726
0.182036
0.183922
0.185409
0.186322
0.187105
0.187371
0.187913
0.188304
0.188469
0.188185
0.186616
0.18369
0.177712
0.171766
0.170503
0.170772
0.171796
0.173747
0.174783
0.17479
0.174541
0.174334
0.174356
0.174643
0.175438
0.17707
0.17919
0.180416
0.180883
0.181297
0.181925
0.182956
0.184284
0.185107
0.184854
0.183456
0.178678
0.169799
0.164946
0.164449
0.16461
0.165364
0.166975
0.168433
0.168902
0.169087
0.169301
0.169552
0.16994
0.170549
0.171818
0.173737
0.174958
0.175177
0.175122
0.175391
0.176178
0.177817
0.180118
0.181374
0.181641
0.17948
0.173026
0.16565
0.163287
0.162256
0.161947
0.162578
0.16365
0.164274
0.164508
0.16476
0.165293
0.166336
0.168067
0.170593
0.173189
0.174452
0.174432
0.173449
0.171675
0.170018
0.168995
0.168605
0.16866
0.168124
0.167294
0.165097
0.160679
0.157868
0.157618
0.158075
0.159126
0.160422
0.160873
0.160637
0.159845
0.158893
0.158282
0.157874
0.157638
0.159268
59.4619
1.38142
0.165808
0.155432
0.149006
0.152403
0.161986
0.17879
0.197338
0.217637
0.239355
0.264043
0.286098
0.294199
0.292634
0.286541
0.279363
0.271908
0.264152
0.245998
0.191903
0.161029
0.163288
0.171541
0.178324
0.182858
0.186087
0.189467
0.193922
0.199437
0.205462
0.211504
0.217156
0.222373
0.227624
0.233374
0.240253
0.249279
0.2611
0.268458
0.267548
0.258691
0.218633
0.182841
0.180948
0.185509
0.190814
0.194207
0.195578
0.19614
0.196951
0.198624
0.201543
0.205696
0.210631
0.215445
0.219452
0.222426
0.224472
0.22626
0.22933
0.23614
0.246065
0.248847
0.247227
0.232604
0.199505
0.18697
0.187832
0.189584
0.192306
0.193923
0.194342
0.194698
0.196112
0.199116
0.203497
0.20819
0.211586
0.213162
0.213794
0.214517
0.215836
0.218439
0.222885
0.229977
0.235395
0.236538
0.232827
0.215115
0.195042
0.1917
0.191505
0.192448
0.19397
0.194603
0.194476
0.194242
0.194399
0.195385
0.197752
0.201298
0.205212
0.208361
0.209968
0.210558
0.210813
0.211993
0.215274
0.219327
0.219645
0.218133
0.209931
0.19152
0.182158
0.181404
0.182732
0.18602
0.190033
0.192468
0.193143
0.192835
0.192436
0.192428
0.193434
0.195611
0.198244
0.20048
0.201525
0.201446
0.200955
0.200956
0.203045
0.208715
0.214468
0.216861
0.21642
0.207947
0.193366
0.188865
0.188817
0.19008
0.192532
0.194144
0.194428
0.194054
0.193685
0.193948
0.195215
0.197611
0.200634
0.202545
0.203734
0.203971
0.203582
0.203048
0.203312
0.203715
0.202736
0.200311
0.194508
0.183004
0.173917
0.172204
0.172131
0.173423
0.176193
0.17906
0.180992
0.182581
0.184199
0.185593
0.187167
0.189456
0.192533
0.195165
0.196433
0.197012
0.197577
0.198374
0.199525
0.20143
0.203019
0.20299
0.202422
0.198313
0.189166
0.183737
0.183271
0.182952
0.183138
0.183259
0.182836
0.181976
0.181192
0.180705
0.18048
0.180695
0.181532
0.183137
0.184787
0.18579
0.186605
0.187089
0.187653
0.188167
0.18858
0.188266
0.186857
0.183904
0.177552
0.171521
0.170278
0.170219
0.170969
0.172798
0.174219
0.174476
0.174502
0.174698
0.175165
0.175878
0.176963
0.178632
0.180598
0.181845
0.18235
0.182697
0.183179
0.183877
0.184428
0.184542
0.183535
0.180809
0.174675
0.166313
0.162363
0.161914
0.162142
0.163028
0.164926
0.166835
0.167758
0.168048
0.168184
0.168411
0.168918
0.169765
0.171165
0.173142
0.174442
0.174592
0.174509
0.174741
0.175532
0.177333
0.180008
0.181653
0.182294
0.180475
0.174298
0.166652
0.164166
0.163284
0.163197
0.164082
0.165314
0.165941
0.166022
0.166051
0.166246
0.166792
0.167929
0.169897
0.172243
0.173335
0.17317
0.172092
0.170575
0.169457
0.168894
0.169002
0.169547
0.169381
0.168831
0.166476
0.161393
0.157858
0.157306
0.157291
0.157956
0.159125
0.159487
0.15935
0.158774
0.15824
0.157912
0.157775
0.157742
0.159512
59.5331
1.37168
0.161445
0.154337
0.149831
0.154223
0.164416
0.181036
0.199225
0.219251
0.241299
0.266372
0.287863
0.295333
0.293672
0.287366
0.279685
0.272438
0.265011
0.246954
0.192949
0.162047
0.163829
0.17061
0.177028
0.181573
0.18511
0.18915
0.194401
0.20106
0.208122
0.214371
0.219259
0.22341
0.227536
0.232516
0.238957
0.247622
0.25878
0.264939
0.264083
0.255403
0.216094
0.182855
0.18163
0.186064
0.190878
0.193905
0.195249
0.195994
0.196999
0.198869
0.202054
0.206565
0.211835
0.216838
0.22078
0.223522
0.225327
0.226923
0.229571
0.235374
0.243724
0.245802
0.244092
0.231501
0.200563
0.18751
0.1888
0.191193
0.194241
0.19603
0.196361
0.196326
0.196962
0.198998
0.202389
0.20657
0.210745
0.21368
0.21537
0.216708
0.21826
0.220546
0.22415
0.229818
0.234145
0.233778
0.23029
0.21459
0.194818
0.190608
0.190841
0.191958
0.193753
0.194687
0.194709
0.19451
0.194613
0.19556
0.19787
0.201496
0.205427
0.208604
0.210008
0.210209
0.209942
0.210282
0.212543
0.216575
0.217564
0.217003
0.210033
0.19257
0.182219
0.1808
0.181553
0.184462
0.188392
0.191088
0.19224
0.192217
0.192007
0.192273
0.193628
0.196013
0.198789
0.201039
0.201895
0.201575
0.200805
0.200538
0.202287
0.20767
0.213611
0.216115
0.215998
0.208041
0.193417
0.1884
0.188183
0.189448
0.192125
0.194214
0.194885
0.194895
0.194809
0.195211
0.196573
0.198879
0.201547
0.203141
0.203863
0.203722
0.203106
0.202255
0.201779
0.201411
0.200059
0.197706
0.192732
0.18257
0.173708
0.171895
0.17186
0.173243
0.17615
0.179148
0.180972
0.182275
0.183542
0.184682
0.186247
0.188692
0.191934
0.194808
0.196142
0.196521
0.196755
0.197284
0.198419
0.200585
0.202494
0.202847
0.20251
0.198897
0.190239
0.184703
0.184226
0.18423
0.184793
0.184956
0.184301
0.183046
0.181909
0.181236
0.180936
0.180935
0.181435
0.182888
0.184634
0.185659
0.186193
0.186694
0.187203
0.188033
0.188801
0.188516
0.187278
0.18437
0.17769
0.171581
0.170298
0.169981
0.170496
0.172171
0.173804
0.174455
0.174758
0.175321
0.176251
0.177424
0.178874
0.180647
0.182531
0.183545
0.183738
0.183924
0.184068
0.184359
0.184481
0.183856
0.181942
0.178496
0.172744
0.165265
0.161222
0.160593
0.160822
0.161638
0.163427
0.165383
0.166424
0.166786
0.166978
0.1673
0.16783
0.168804
0.170492
0.172732
0.174329
0.174624
0.174604
0.174809
0.175559
0.177376
0.180177
0.182022
0.18277
0.181211
0.175365
0.16774
0.16532
0.164661
0.164908
0.166063
0.167268
0.167734
0.167599
0.167307
0.167108
0.167112
0.167586
0.168809
0.17072
0.171652
0.171469
0.170681
0.169879
0.169369
0.169307
0.170011
0.170865
0.17088
0.170319
0.167552
0.161722
0.157847
0.157057
0.156787
0.157271
0.158326
0.158627
0.158557
0.158267
0.157953
0.157776
0.157777
0.158011
0.160068
59.5799
1.35159
0.157253
0.152088
0.148861
0.153871
0.164764
0.181554
0.199928
0.220423
0.24338
0.268708
0.289321
0.296125
0.294825
0.288924
0.281462
0.274798
0.267538
0.248559
0.192937
0.16257
0.164092
0.169363
0.175455
0.180317
0.184462
0.189321
0.195841
0.203903
0.211776
0.217861
0.222016
0.225201
0.228494
0.2328
0.238899
0.247486
0.257945
0.262346
0.26099
0.251978
0.212606
0.182802
0.182485
0.186629
0.190907
0.19356
0.194737
0.195473
0.196556
0.198588
0.202211
0.207444
0.213361
0.218542
0.222212
0.224488
0.225974
0.227427
0.229855
0.2348
0.241801
0.243278
0.240906
0.22939
0.200698
0.187988
0.189603
0.192973
0.196223
0.19806
0.198388
0.198236
0.198379
0.199405
0.201819
0.205493
0.209961
0.214231
0.217186
0.218951
0.220526
0.222542
0.225216
0.229498
0.232753
0.231478
0.227721
0.213684
0.194125
0.189198
0.190094
0.19154
0.193592
0.194741
0.194826
0.194587
0.194612
0.195499
0.197728
0.201399
0.205429
0.208568
0.209705
0.209525
0.208701
0.208235
0.209755
0.214018
0.216022
0.216599
0.210955
0.194438
0.182652
0.180612
0.180792
0.183171
0.186684
0.189336
0.190846
0.191475
0.191928
0.192745
0.194406
0.196969
0.199934
0.202054
0.20252
0.201911
0.200917
0.200395
0.201915
0.206887
0.212549
0.215009
0.214883
0.207232
0.192755
0.187368
0.186929
0.188261
0.191228
0.19395
0.195184
0.195665
0.19589
0.196263
0.197352
0.199339
0.201521
0.202691
0.203029
0.202464
0.201362
0.200157
0.199525
0.19949
0.198742
0.197031
0.193012
0.183312
0.174182
0.172287
0.172327
0.173665
0.176441
0.179447
0.18124
0.182423
0.183522
0.18449
0.185849
0.188046
0.191152
0.194073
0.19549
0.195807
0.195894
0.196311
0.197456
0.199655
0.201832
0.202485
0.20217
0.198776
0.190418
0.18485
0.184285
0.184481
0.185499
0.186114
0.185777
0.184672
0.183369
0.182396
0.18188
0.181665
0.182032
0.183304
0.184929
0.18575
0.186017
0.186306
0.186813
0.187906
0.188852
0.188663
0.187693
0.18487
0.177998
0.171866
0.170578
0.170134
0.170496
0.172016
0.173833
0.174811
0.175403
0.176228
0.177505
0.179049
0.180738
0.182529
0.184145
0.184836
0.184799
0.184592
0.184401
0.184335
0.184049
0.183098
0.181275
0.1783
0.172922
0.165376
0.161022
0.160288
0.160485
0.161191
0.162769
0.164555
0.165466
0.165671
0.165728
0.165978
0.166621
0.167875
0.169896
0.172597
0.174693
0.175349
0.175427
0.175577
0.176253
0.177943
0.180719
0.182534
0.18309
0.181655
0.176026
0.168502
0.166414
0.166237
0.166855
0.168335
0.16971
0.170125
0.169965
0.169399
0.16864
0.167931
0.167544
0.167847
0.169003