/*--------------------------------*- C++ -*----------------------------------*\
| =========                 |                                                 |
| \\      /  F ield         | OpenFOAM: The Open Source CFD Toolbox           |
|  \\    /   O peration     | Version:  2306                                  |
|   \\  /    A nd           | Website:  www.openfoam.com                      |
|    \\/     M anipulation  |                                                 |
\*---------------------------------------------------------------------------*/
FoamFile
{
    version     2.0;
    format      ascii;
    arch        "LSB;label=32;scalar=64";
    class       volScalarField;
    location    "0.2";
    object      T;
}
// * * * * * * * * * * * * * * * * * * * * * * * * * * * * * * * * * * * * * //

dimensions      [0 0 0 1 0 0 0];

internalField   nonuniform List<scalar> 
6000
(
3103.21
2586.93
1967.1
1844.83
1847.19
1897.41
1935.45
1999.75
2070.68
2148.22
2232.99
2322.84
2409.99
2474.54
2514.54
2551.92
2576.56
2590.46
2590.01
2507.3
2204.74
2033.19
2021.19
2038.43
2063.72
2089.76
2121.85
2165.45
2218.47
2272.64
2316.39
2346.55
2370.07
2393.64
2423.07
2465.68
2527.88
2600.89
2659.78
2683.55
2671.87
2590.1
2347.09
2224.06
2223.77
2241.2
2266.18
2286.8
2304.23
2323.78
2349.86
2383.79
2421.88
2457.77
2486.47
2508.37
2527.28
2546.56
2569.8
2597.64
2629.38
2673.04
2707.3
2703.7
2680.5
2567.04
2417.06
2396.3
2412.48
2441.19
2470.97
2490.11
2500.79
2508.53
2517.59
2529.71
2544.41
2560.54
2577.01
2591.61
2603.11
2611.8
2621.46
2643.01
2683.06
2721.09
2739.42
2724.32
2652.84
2524.09
2475.41
2470.14
2481.72
2503.5
2527.58
2551.87
2576.89
2601.55
2624.18
2646.83
2669.34
2690.54
2708.57
2719.25
2722.17
2723.65
2725.02
2733.23
2757.87
2796.46
2819.17
2822.98
2783
2680.53
2615.66
2603.09
2607.28
2625.02
2647.92
2665.74
2681.53
2694.88
2705.52
2716.15
2728.66
2743.52
2759.09
2771.37
2778.28
2780.28
2781.64
2786.12
2799.24
2812.6
2826
2826.46
2791.24
2710.83
2665.22
2654.05
2651.56
2659.05
2673.74
2692.22
2708.55
2723.97
2734.46
2743.92
2756.95
2775.59
2797.22
2814.52
2824.92
2830.91
2834.5
2840.72
2857.57
2882.14
2896.99
2909.01
2891.29
2835.42
2798.79
2796.18
2800.97
2815.4
2831.09
2842.14
2849.85
2856.23
2862.15
2868.01
2873.91
2879.73
2883.75
2886.92
2888.39
2888.48
2889.43
2890.14
2895.01
2910.67
2934.69
2946.49
2953.03
2936.61
2882.9
2848.09
2843.91
2847.27
2859.75
2876.25
2890.03
2905.22
2919.34
2934.92
2948.28
2964.29
2985.52
3006.98
3019.92
3026.79
3032.89
3040.27
3052.35
3071.18
3091.77
3102.13
3110.23
3091.45
3025.69
2982.07
2979.84
2983.25
2990.8
3000.12
3007.51
3014.41
3023.85
3036.13
3051.95
3068.56
3090.18
3118.08
3136.74
3140.64
3139.5
3136.15
3132.91
3130.9
3135.2
3145.58
3151.93
3151.48
3145.22
3117.82
3085.86
3081.5
3091.47
3106.52
3123.92
3137.28
3141.38
3141.9
3142.93
3146.01
3153.58
3164.9
3181.38
3196.34
3200.43
3198.08
3193.87
3188.23
3185.68
3186.74
3192.85
3199.39
3200.79
3199.12
3182.48
3153.14
3146.7
3155.64
3170.93
3187.41
3195.83
3196.79
3193.12
3184.94
3178.79
3176.17
3178.43
3188.86
3205.31
3223.89
3237.7
3248.03
3260.61
3279.72
3307.69
3340.01
3363.21
3373.46
3368.79
3341.18
3288.18
3262.99
3258.36
3258.6
3266.83
3278.85
3289.4
3297.85
3307.41
3318
3331.36
3347.3
3366.45
3394.32
3102.22
2557.77
1965.67
1842.31
1845.95
1893.11
1928.83
1990.75
2060.98
2138.83
2225.46
2319.2
2413.83
2480.38
2515.08
2540.83
2558.82
2568.51
2575.59
2501.47
2205.78
2029.06
2018.96
2037.8
2065.19
2093.6
2127.23
2170.93
2221.5
2271.07
2311.6
2341.27
2365.63
2390.37
2421.47
2465.52
2527.69
2600.48
2660.24
2683.94
2672.09
2594.43
2354.86
2224.35
2224.52
2242.5
2268.28
2289.55
2306.9
2325.85
2350.62
2382.81
2419.47
2455.09
2484.72
2507.87
2527.84
2547.53
2570.2
2597.31
2629.57
2675.4
2712.58
2710.22
2687.63
2575.34
2422.49
2399.47
2412.89
2438.32
2465.89
2484.63
2495.93
2504.93
2515.77
2529.68
2545.56
2562.02
2577.84
2591.25
2601.31
2608.43
2616.82
2637.17
2677.56
2722.38
2743.27
2731.75
2663.16
2531.69
2479.78
2474.96
2487.12
2510.17
2535.23
2557.62
2578.12
2597.74
2618.04
2639.73
2662.34
2684.01
2702.58
2715.18
2721.21
2724.42
2728.07
2738.89
2764.01
2801.44
2821.76
2822.99
2782.37
2678.95
2615.28
2603.96
2608.88
2626.86
2649.85
2668.22
2683.11
2693.86
2702.4
2711.99
2724.74
2740.64
2757.74
2771.49
2779.64
2782.88
2785.16
2790.45
2803.83
2816.98
2829.43
2829.72
2795.43
2714.88
2668.15
2657.72
2656.15
2664.99
2680.96
2699.76
2715.24
2729.1
2737.39
2744.62
2755.78
2773.48
2795.06
2813.37
2825
2832.43
2837.41
2844.31
2860.62
2884.75
2897.63
2907.66
2890.81
2834.44
2794.57
2792.54
2797.2
2810.88
2825.98
2836.81
2843.29
2848.58
2854.68
2862.56
2871.46
2880.18
2888.46
2893.22
2896.03
2896.24
2896.64
2898.42
2904.36
2919.34
2939.9
2948.7
2952.94
2934.04
2878.48
2847.19
2845.09
2850.3
2864.54
2882.15
2895.74
2908.44
2919.5
2932.57
2944.67
2960.47
2982.19
3003.51
3015.58
3021.44
3026.84
3034.22
3045.88
3064.85
3084.53
3094.73
3099.03
3081.86
3022.23
2979.84
2978.73
2983.73
2993.08
3002.83
3009.38
3013.69
3020.39
3030.09
3042.67
3057.76
3078.29
3105.33
3125.56
3131.28
3131.47
3130.4
3129.45
3129.34
3135.41
3147.86
3155.34
3155.54
3149.95
3122.24
3089.05
3084.05
3093.4
3107.32
3124.25
3135.71
3138.43
3138.69
3138.83
3140.66
3146.28
3156.02
3171.23
3188.25
3195.48
3195.26
3193.38
3189.81
3188.54
3190.3
3196.51
3201.21
3201.81
3198.21
3178.11
3148.15
3142.64
3150.68
3164.59
3180.63
3189.63
3192.04
3190.31
3185.38
3182.22
3181.37
3184.55
3195.17
3211.96
3231.47
3246.06
3256.5
3267.95
3284.24
3307.27
3333.25
3350.65
3358.47
3354.74
3330.26
3282.53
3261.42
3259.24
3261.73
3272.08
3285.32
3295.89
3303.71
3311.19
3320.15
3330.74
3344.13
3360.09
3384.68
3102.4
2644.74
1958.18
1836.15
1840.91
1886.64
1922.42
1982.79
2052.54
2129.92
2217.36
2316.12
2418.56
2484.48
2512.58
2521.05
2527.23
2535.91
2551.63
2490.71
2210.02
2025.25
2017.52
2039.87
2071.62
2103.78
2139.13
2180.48
2224.98
2267.25
2303.44
2334.18
2362.02
2390.21
2423.67
2467.34
2528
2599.22
2658.66
2680.65
2668.68
2600.26
2369.1
2226.62
2227.63
2246.31
2273.08
2294.95
2311.91
2329.06
2350.98
2380.09
2414.91
2450.94
2482.72
2507.89
2528.52
2547.83
2569.11
2595
2627.75
2675.89
2717.61
2718.17
2698
2588.94
2430.16
2402.86
2411.96
2432.64
2456.88
2474.94
2488.07
2500.56
2514.87
2531.25
2548.56
2564.76
2578.91
2590.54
2598.51
2603.65
2610.76
2628.97
2668.74
2720.64
2747.23
2742.12
2680.87
2546.35
2488.11
2484.46
2498.19
2522.46
2546.15
2563.89
2577.89
2591.89
2609.24
2630.59
2653.99
2676.7
2695.96
2710.15
2718.92
2724.43
2731.26
2744.26
2770.69
2806.65
2823.35
2822.32
2780.59
2675.88
2615.17
2606.2
2612.46
2630.84
2653.96
2671.68
2684.84
2692.76
2699.47
2708.28
2721.36
2738.42
2757.08
2771.99
2781.42
2786.15
2788.69
2794.21
2808.28
2823.85
2836.08
2837.41
2804.4
2722.89
2673.88
2664.41
2664.22
2675.13
2692.74
2711.73
2725.34
2735.48
2740.87
2745.98
2754.98
2771.02
2792.5
2811.85
2824.95
2835.08
2842.13
2849.8
2865.2
2887.79
2897.44
2903.72
2889.53
2833.1
2790.16
2789.29
2794.42
2807.82
2822.01
2830.68
2835.81
2840.78
2846.37
2853.49
2863.51
2876.8
2889.8
2897.9
2902.65
2905.73
2908.44
2912.19
2919.06
2932.61
2947.55
2952.02
2954.05
2930.63
2873.82
2846.88
2847.69
2855.41
2870.89
2889
2901.34
2909.39
2918.04
2927.99
2938.93
2954.23
2976.56
2998.7
3010.5
3015.72
3021.05
3028.96
3039.99
3056.65
3073.22
3080.69
3080.28
3064.4
3015.39
2975.51
2974.52
2982.4
2994.65
3005.81
3010.98
3012.99
3015.93
3021.77
3031.36
3043.86
3061.84
3087.79
3111.72
3119.95
3121.04
3121.22
3122
3125.31
3134.35
3149.67
3159.12
3160.9
3156.43
3128.5
3093.34
3087.24
3095.62
3107.98
3124.08
3132.86
3133.83
3133.52
3132.6
3132.89
3136.29
3144.51
3158.37
3177.14
3188.45
3190.42
3190.86
3190.43
3191.81
3196.6
3203.17
3205.98
3206.12
3199.49
3174.06
3142.35
3136.22
3141.83
3153.51
3169.14
3180
3184.63
3186.87
3186.4
3186.47
3187.24
3191.77
3202.75
3221.01
3243.79
3260.49
3270.89
3280.73
3292.59
3307.33
3324.93
3336.03
3340.85
3338.83
3315.52
3273.65
3258.09
3259.92
3267.57
3281.14
3297.35
3307.75
3314.87
3319.16
3323.69
3330.44
3340.55
3354.14
3376.11
3102.29
2646.92
1960.38
1834.3
1836.73
1877.05
1915.21
1972.35
2040.43
2119.49
2209.19
2312.32
2415.2
2479.54
2501.68
2498.95
2497.04
2502.04
2518.9
2472.8
2209.75
2018.83
2018.21
2044.58
2081.14
2117.51
2153.94
2191.38
2228.3
2262.97
2294.95
2326
2357.09
2389.09
2425.31
2468.75
2527.15
2595.9
2656.2
2678.33
2666.19
2607.88
2389.32
2231.5
2232.81
2252.77
2280.9
2303.49
2319.65
2334.3
2352.31
2377.27
2409.6
2445.62
2479.45
2506.95
2528.57
2547.48
2567.26
2591.49
2624.66
2674.49
2721.37
2727.32
2710.35
2606.74
2441.44
2407.69
2412.75
2428.58
2448.61
2464.57
2477.95
2493.18
2511.35
2531.23
2550.48
2566.9
2579.57
2589.04
2594.42
2597.87
2604.46
2621.66
2660.74
2717.2
2749.71
2752.15
2702.27
2568.65
2501.13
2499.25
2513.41
2536.47
2556.41
2568.7
2577.26
2586.67
2600.85
2620.72
2644.22
2667.88
2688.57
2704.65
2716.01
2724.44
2734.18
2749.64
2777.87
2811.7
2824.12
2821.12
2778.25
2671.97
2614.64
2608.68
2617.14
2636.7
2659.97
2676.68
2686.89
2690.99
2695.34
2703.28
2716.64
2734.83
2755.2
2771.58
2782.15
2787.27
2790.07
2796.19
2810.9
2832.14
2844.77
2849.36
2819.97
2738.13
2683.76
2675.78
2677.56
2690.35
2709.57
2727.45
2737.94
2742.79
2744.61
2747.12
2754.07
2769.08
2791.26
2811.53
2826.76
2838.79
2847.06
2854.46
2868.68
2889.35
2897.5
2900.83
2888.09
2830.63
2783.68
2782.31
2786.92
2798.77
2812.12
2819.43
2825.22
2831.48
2838.01
2845.37
2855.89
2872.06
2889.92
2903.28
2909.54
2915.93
2922.79
2928.94
2936.88
2947.28
2955.22
2955.56
2954.4
2925.69
2870.58
2848.6
2852.67
2862.07
2877.72
2894.73
2904.56
2910.09
2915.82
2923.67
2933.15
2947.13
2969
2991.05
3002.89
3007.8
3013.17
3020.9
3031.29
3045.11
3058.79
3064.64
3062.8
3050.98
3011.18
2971.49
2968.11
2976.81
2991.26
3005.55
3011.36
3011.93
3011.84
3012.98
3017.89
3027.83
3043.31
3067.53
3092.2
3103.61
3107.71
3109.48
3112.19
3118.39
3130.72
3149.92
3161.12
3164.29
3160.64
3130.73
3091.99
3085.15
3092.18
3102.92
3116.58
3122.58
3123.02
3123.28
3121.88
3121.74
3123.88
3130.43
3144.2
3165.19
3180.09
3184.41
3186.22
3189
3194.61
3203.4
3210.32
3212.47
3212.26
3203.21
3172.45
3137.83
3130.45
3132.84
3141.49
3155.71
3169.69
3176.49
3181.89
3185.91
3189.42
3193.69
3201.38
3214.7
3236.12
3261.56
3278.66
3287.42
3293.96
3299.66
3306.2
3314.7
3319.66
3323.34
3321.27
3299.51
3264.22
3253.56
3259.82
3272.06
3290.52
3309.18
3319.32
3324.99
3326.3
3326.33
3329.19
3335.36
3346.59
3367.7
3100.37
2552.69
1969.46
1835
1832.62
1866.53
1907.74
1963.77
2032.42
2114.01
2205.58
2308.07
2408.68
2469.18
2485.15
2479.05
2473.89
2474.22
2485.98
2448.17
2201.92
2010.22
2020.51
2052.12
2093.86
2132.94
2167.87
2200.22
2230.08
2258.76
2287.78
2319.08
2352.45
2387.64
2425.9
2469.28
2524.01
2588.38
2649.57
2673.94
2662.86
2614.84
2411.92
2239.5
2239.05
2261.14
2290.82
2314
2328.77
2340.35
2354.35
2375.2
2404.4
2439.24
2473.98
2503.44
2526.78
2546.1
2564.65
2587.32
2620.1
2669.99
2722.14
2735.26
2720.9
2625.15
2453.36
2411
2413.23
2425.93
2443.15
2456.41
2468.1
2483.73
2505.05
2529.59
2551.55
2568.53
2579.68
2586.51
2589.73
2593.13
2600.07
2616.44
2654.17
2712.48
2749.28
2760.16
2722.23
2596.58
2517.71
2516.04
2528.38
2548.15
2564.19
2572.5
2577.19
2583.28
2594.77
2612.75
2635.64
2660.11
2682.35
2700.11
2713.36
2724.09
2735.87
2753.59
2783.87
2815.36
2822.91
2818.75
2774.62
2667.09
2613.34
2610.7
2621.45
2643.04
2666.17
2682.1
2688.94
2690.88
2692.9
2699.14
2711.93
2730.39
2750.86
2767.71
2778.65
2784.8
2789.35
2796.23
2811.39
2837.89
2853.21
2862.14
2839.52
2762.04
2698.67
2691.11
2694.41
2708.54
2728.5
2743.48
2749.76
2749.97
2748.86
2749.41
2755.35
2769.97
2792.75
2813.47
2830.81
2843.44
2852.33
2859.41
2872.2
2890.72
2898.97
2899.65
2885.23
2824.87
2772.71
2770.4
2775.15
2786.14
2798.68
2806.31
2814.53
2823.16
2832.62
2841.19
2852.49
2870.76
2891.23
2906.38
2914.77
2923.34
2934.09
2942.96
2953
2962.29
2965.66
2963.21
2956.85
2923.3
2870.6
2853.2
2859.21
2868.57
2882.73
2897.12
2904.16
2907.58
2911.74
2918.24
2926.39
2939.5
2960.11
2981.54
2993.51
2999.05
3005.67
3012.78
3022.33
3034.01
3044.85
3049.68
3046.78
3037.18
3005.11
2967.06
2961.75
2970.35
2984.87
3001.68
3009.13
3009.58
3008.88
3007.82
3008.77
3015.26
3028.5
3050.49
3074.94
3087.6
3093.64
3098.37
3103.12
3110.87
3126
3147.46
3158.2
3161.47
3157
3124.42
3084.43
3078.55
3083.94
3093.91
3105.17
3109.87
3110.62
3110.7
3109.11
3109.57
3111.44
3116.93
3131.75
3154.43
3170.9
3176.91
3180.43
3185.74
3194.26
3206.41
3216.14
3219.76
3219.72
3209.03
3173.26
3134.77
3126.65
3126.38
3132.03
3144.64
3159.05
3167.34
3173.77
3181.03
3188.17
3197.35
3209.89
3228.58
3254.77
3280.84
3294.19
3299.89
3302.65
3302.13
3302.42
3305.46
3306.86
3309.06
3307.04
3289.31
3259.08
3250
3258.71
3273.84
3294.92
3315.66
3327.08
3331.95
3331.82
3329.09
3328.3
3331.09
3339.74
3360.72
3098.36
2558.32
1976.71
1839.7
1827.1
1854.72
1897.77
1956.24
2028.61
2112.71
2204.34
2303.84
2402.33
2458.96
2468.72
2463.74
2459.06
2455.6
2460.35
2421.97
2188.56
2003.97
2022.44
2062.23
2106.92
2145.26
2176.44
2203.72
2228.95
2254.66
2283.38
2315.58
2350.18
2386.89
2425.38
2467.72
2517.78
2576.92
2638.54
2668.28
2659.6
2620.37
2433.15
2248.92
2244.53
2269.23
2300.41
2324.03
2337.45
2346.63
2357.57
2374.95
2400.86
2433.4
2467.87
2498.74
2523.63
2544.35
2563.17
2584.49
2615.54
2664.34
2720.75
2739.06
2728.31
2641.48
2466.84
2416.17
2416.15
2426.68
2442.07
2453.19
2461.95
2475.11
2496.84
2524.37
2550.72
2568.56
2578.52
2584.01
2587.02
2590.44
2597.72
2614.04
2649.7
2707.01
2747.94
2764.24
2737.13
2623.51
2532.95
2529.56
2539.02
2555.71
2569.69
2576.21
2578.57
2582.68
2591.51
2607.55
2629.59
2654.44
2677.79
2696.81
2711.36
2723.49
2736.21
2754.48
2784.71
2814.31
2819.89
2814.51
2769.43
2662.06
2610.73
2610.65
2623.51
2647.25
2670.98
2686.57
2691.54
2691.62
2691.67
2696.02
2707.44
2725.03
2745.11
2762.33
2773.46
2779.91
2785.46
2793.43
2809.88
2839.47
2860.13
2872.38
2858.15
2790.77
2718.66
2709.52
2713.49
2726.82
2745.61
2757.58
2760.31
2758.08
2755.62
2755.31
2761.08
2775.91
2799.38
2819.66
2837.05
2849.03
2857.44
2863.45
2874.14
2889.26
2897.1
2895.91
2879.01
2815.62
2759.46
2754.17
2757.41
2767.11
2780.29
2792.49
2805.02
2816.51
2829.13
2839.17
2851.39
2869.74
2891.38
2908.09
2918
2927.36
2939.54
2950.31
2962.42
2973.22
2977.55
2974.77
2968.15
2930.55
2875.29
2859.19
2865.64
2874.05
2885.72
2897.38
2902.82
2904.99
2907.66
2912.35
2919.86
2931.95
2950.44
2970.52
2982.62
2990.3
2997.67
3005.08
3013.98
3025.22
3033.92
3037.43
3033.69
3025.31
2996.73
2960.01
2953.7
2961.94
2976.76
2995.5
3004.88
3006.32
3006.21
3005.49
3005.91
3010.46
3021.69
3040.22
3061.97
3074.82
3082.46
3088.22
3095.36
3105.31
3121.65
3141.98
3149.89
3151.69
3144.15
3104.98
3064.61
3060.82
3065.52
3074.49
3084.63
3090.11
3091.17
3092.37
3093.29
3096.7
3100.46
3107.74
3123.13
3145.05
3161.28
3168.19
3173.04
3180.43
3190.72
3205.38
3219.57
3226.97
3227.43
3216.52
3177.18
3134.5
3125.47
3123.87
3127.44
3138.83
3152.54
3161.89
3169.45
3178.15
3187.57
3200.39
3217.94
3242.88
3272.65
3295.12
3304.53
3306.68
3305.57
3301.86
3298.06
3297.76
3298.49
3300.12
3299.8
3287.35
3260.08
3249.94
3258.56
3275.65
3297.09
3317.5
3329.02
3333.09
3332.19
3328.1
3325.56
3327.17
3334.17
3355.55
3097.86
2649.78
1980.14
1844.49
1822.73
1846.95
1891.88
1955.19
2030.96
2114.51
2202.89
2302.04
2399.8
2452.81
2458.23
2453.41
2449.44
2444.56
2443.51
2401.4
2177.4
1999.28
2020.82
2070.73
2115.83
2150.97
2178.53
2202.32
2225.98
2252.55
2282.74
2315.26
2350.09
2386.42
2424.25
2464.41
2509.8
2563.75
2624.58
2659.5
2654.75
2622.78
2449.38
2257.8
2250.58
2276.98
2309.16
2332.73
2344.98
2352.52
2361.82
2377
2400.12
2430.09
2462.9
2494.03
2520.72
2543.08
2562.8
2583.21
2611.78
2658.7
2716.92
2738.46
2731.1
2652.72
2478.68
2420.94
2421.27
2430.5
2445.12
2455.44
2461.59
2470.76
2489.25
2516.48
2545.85
2566.77
2577.18
2582.92
2586.58
2590.3
2598.56
2615.32
2648.67
2702.08
2744.7
2763.76
2744.35
2643.65
2544.56
2538.02
2545.05
2559.43
2572.75
2579.06
2581.12
2584.21
2591.56
2605.66
2626.32
2650.59
2674.97
2695.17
2710.4
2722.64
2734.7
2751.87
2780.76
2808.55
2813.42
2808.68
2764.61
2659.06
2609.22
2610.69
2624.32
2648.02
2672.2
2687.63
2691.91
2691.53
2691.16
2694.85
2705.3
2721.79
2741.35
2757.72
2768.7
2774.7
2779.62
2787.53
2804.89
2837.84
2864.07
2878.59
2872.02
2816.19
2739.16
2725.15
2728.99
2740.98
2757.61
2767.91
2769.69
2767.08
2764.65
2764.7
2771.72
2787.5
2810.91
2829.57
2845.23
2855.29
2861.24
2865.17
2874.3
2887.82
2893.37
2890.05
2868.61
2802.73
2743.32
2734.81
2736.77
2747.22
2764.21
2781.87
2797.83
2811.97
2826.05
2836.54
2848.75
2866.57
2889.29
2907.76
2919.56
2929.29
2940.63
2952.14
2965.27
2977.51
2984.62
2984.06
2981.95
2948.64
2889.97
2869.12
2872.63
2878.92
2888.54
2898.04
2901.95
2903.3
2904.64
2907.37
2914.27
2924.99
2940.49
2959.04
2971.84
2980.92
2989.24
2997.34
3007.69
3019.27
3025.96
3028.27
3024.64
3015.98
2987.1
2951.61
2945.81
2953.48
2967.49
2986.52
2997.65
3001.39
3002.97
3004.13
3006.36
3011.68
3021.81
3038.13
3057.59
3069.63
3076.72
3083.42
3091.67
3102.8
3118.68
3133.25
3137.84
3137.44
3122.03
3072.11
3033.61
3031.55
3036.3
3044.47
3056.29
3066.36
3071
3075.05
3080.48
3086.3
3092.43
3100.66
3115.73
3136.63
3152.09
3159.44
3164.66
3172.57
3184.15
3201.18
3220.64
3231.97
3235.36
3225.39
3184.83
3138.13
3127.67
3125.08
3127.83
3138.64
3152
3161.93
3170.07
3179.05
3189.91
3204.85
3225.17
3252.65
3280.93
3299.77
3307.87
3308.19
3305.75
3300.02
3295.07
3294.02
3297.33
3300.35
3301.78
3292.25
3265.58
3252.53
3259.51
3275.28
3294.6
3313.91
3325.13
3328.88
3327.46
3323.82
3322.68
3324.85
3332.72
3355.67
3097.36
2554.13
1983.55
1843.24
1821.63
1849.15
1895.49
1963.19
2038.33
2119.1
2206.16
2304.87
2401.72
2450.77
2454.22
2449.33
2444.32
2438.66
2435.13
2391.48
2172.56
1996.45
2017.83
2073.35
2118.26
2151.19
2175.68
2198.01
2222.79
2251.78
2284.39
2318.72
2353.71
2388.2
2423.22
2460.02
2501.09
2550.88
2610.62
2648.37
2647.15
2620.32
2456.37
2265.15
2256.45
2284.57
2316.86
2339.71
2351.53
2358.84
2367.42
2381.08
2402.08
2430
2461.29
2491.93
2519.38
2542.94
2563.45
2583.41
2609.42
2652.7
2709.49
2731.63
2727.71
2658.44
2488.82
2425.11
2427.63
2437.06
2451.65
2461.38
2466.42
2472.26
2485.82
2509.66
2538
2563.04
2576.62
2583.57
2588.4
2593.77
2603.99
2621.61
2652.15
2700.29
2739.99
2757.64
2743.67
2655.38
2553.04
2542.75
2548.21
2560.6
2573.83
2581.18
2584.25
2587.64
2594.26
2606.65
2625.37
2649.06
2673.93
2695.07
2710.44
2721.77
2732.14
2747.51
2773.26
2799.48
2804.84
2801.8
2760.24
2658.03
2608.13
2609
2622.29
2645.71
2670.88
2686.95
2692.01
2692.15
2692.2
2695.64
2705.3
2721.17
2739.75
2755.94
2766.57
2771.71
2775.05
2781.54
2798.35
2833.22
2865.26
2881.26
2880.04
2833.41
2754.44
2734.73
2738
2749.05
2764.73
2774.62
2776.73
2774.98
2773.85
2775.82
2784.78
2801.32
2823.55
2839.44
2852.34
2860.04
2864.31
2867.2
2874.63
2883.7
2885.55
2880.59
2854.8
2786.22
2728.41
2719.73
2721.68
2734.07
2754.66
2775.53
2792.63
2807.83
2822.4
2833.76
2846.21
2863.95
2887.34
2907.53
2919.74
2928.38
2937.92
2948.75
2961.69
2975.97
2986.44
2987.29
2988.74
2963.86
2907.68
2881.01
2882.55
2885.74
2892.94
2899.89
2902.42
2903.24
2903.58
2904.92
2910.34
2919.15
2931.9
2948.02
2961.73
2972.02
2982.56
2991.65
3003.62
3014.3
3020.6
3022.39
3019.95
3010.56
2979.12
2943.82
2938.62
2944.99
2957.96
2977.04
2989.92
2995.15
2998.53
3002.24
3007.28
3014.11
3024.35
3040.31
3059.17
3071.34
3078.06
3084.46
3092.15
3102.45
3115.05
3123.22
3123.62
3118.01
3089.29
3031.29
2999.52
2998.91
3004.55
3014.55
3030.61
3046.22
3054.72
3061.31
3068.74
3076.23
3084.18
3093.75
3108.81
3129.19
3144.48
3151.99
3157.29
3165.31
3177.54
3196.37
3220.12
3235.51
3243.02
3234.44
3194.35
3144.67
3133.11
3130.36
3133.46
3144.83
3158.7
3169.37
3177.22
3185.71
3196.75
3211.23
3230.55
3255.58
3281.51
3298.8
3305.73
3305.7
3302.78
3297.89
3294.59
3296.13
3304.16
3309.63
3313.2
3303.91
3273.72
3255.3
3259.38
3272.46
3288.64
3306.52
3317.72
3322.33
3322.31
3321.27
3322.89
3327.82
3338.54
3362.22
3098.28
2571.89
1973.69
1833.77
1822.54
1859.6
1908.67
1976.23
2047.63
2126.42
2212.52
2313.21
2407.49
2452
2456.23
2450.45
2443.33
2437.23
2433.14
2388.19
2172.89
1998.9
2018.39
2071.34
2115.17
2146.76
2170.44
2193.53
2221.1
2254.22
2290.56
2327.07
2360.92
2391.81
2422.46
2455.6
2493.51
2540.3
2598.62
2636.31
2638.57
2614.54
2454.01
2270.28
2263.11
2292.27
2323.48
2344.8
2356.27
2363.73
2372.55
2386.06
2406.29
2433.07
2463.85
2494.16
2521.25
2544.68
2564.97
2584.18
2608.16
2647.26
2699.35
2719.36
2718.81
2659.16
2497.75
2428.42
2434.31
2445.32
2461.04
2471.29
2475.46
2479.32
2488.86
2506.82
2531.76
2557.55
2576.61
2587.18
2594.33
2602.53
2614.32
2632.43
2659.72
2701.21
2734.78
2746.98
2737
2659.79
2558.57
2544.21
2548.66
2559.7
2573.64
2582.7
2587.06
2591.08
2597.48
2608.35
2625.94
2649.33
2674.33
2695.59
2710.07
2719.98
2728.09
2740.2
2761.76
2787.19
2794.64
2794.12
2757.48
2659.97
2607.96
2606.28
2617.32
2639.99
2666.19
2683.33
2690.66
2692.42
2693.45
2697.1
2706.9
2722.72
2740.85
2756.87
2766.86
2770.92
2772.53
2777.29
2793.05
2827.67
2863.77
2881.42
2882.69
2841.33
2762.09
2737.94
2740.45
2751.03
2767.19
2778.52
2782.1
2781.85
2782.22
2786.35
2796.5
2813.14
2833.61
2847.39
2856.97
2862.15
2864.8
2866.34
2870.96
2875.9
2874.47
2866.6
2838.23
2773.96
2721.15
2713.08
2715.63
2728.61
2750.24
2772.48
2788.96
2802.87
2816.32
2828.26
2841.88
2860.6
2884.54
2905.77
2917.94
2925.19
2932.21
2941.39
2953.74
2970.57
2984.14
2987.63
2989.62
2971.01
2919.61
2889.26
2890.57
2894.57
2901.04
2905.35
2905.98
2905.72
2905.57
2906.22
2908.76
2915.05
2924.66
2938.99
2954.26
2965.82
2977.19
2987.54
2998.84
3009.67
3017.43
3019.27
3018.24
3008.28
2973.43
2937.44
2932.79
2937.55
2949.12
2967.04
2982.17
2988.96
2994.19
3000.84
3008.58
3017.61
3029.48
3045.52
3062.95
3074.78
3081.49
3087.28
3094.13
3102.31
3109.41
3112.88
3108.8
3094.17
3055.58
3000.98
2975.95
2975.77
2981.94
2993.21
3011.46
3030.45
3042.82
3050.75
3057.77
3065.46
3074.78
3086.37
3102.38
3123.36
3139.83
3147.56
3153.14
3161.3
3173.75
3193.71
3220.32
3239.1
3249.55
3243.06
3205.52
3153.99
3141.36
3140
3145.11
3158.52
3173.73
3184.74
3191.56
3198.26
3206.92
3218.11
3233.3
3254.56
3279.37
3295.21
3300.85
3300.53
3298.58
3297.23
3297.93
3304.87
3317.39
3325.6
3330.83
3320.25
3284.62
3260.35
3261.91
3270.75
3284.87
3302.34
3313.35
3319.26
3321.29
3323.64
3328.19
3336.25
3348.15
3371.66
3099.31
2570.04
1968.16
1828.9
1829.24
1872.63
1923.04
1989.8
2060.21
2138.24
2225.53
2326.2
2415.11
2456.08
2462.4
2455.98
2447.41
2441.55
2437.04
2390.21
2174.51
2003.7
2020.86
2066.26
2107.81
2138.9
2163.69
2189.62
2221.52
2260.42
2301.77
2339.41
2370.15
2396.78
2422.96
2452.92
2488.76
2533.91
2590.54
2625.18
2629.27
2606.93
2447.1
2273.83
2270.46
2298.92
2327.87
2347.43
2358.4
2366.25
2375.56
2389.67
2410.79
2438.38
2469.74
2499.88
2525.89
2548.09
2567.32
2585.68
2607.94
2642.86
2687.9
2704.44
2704.86
2654.5
2503.57
2431.84
2440.05
2454.64
2472.28
2483.74
2487.84
2490.02
2495.91
2508.86
2529.01
2553.01
2576.45
2593.28
2604.91
2615.93
2628.83
2645.78
2669.31
2703.52
2730.38
2734.11
2726.73
2658.45
2558.89
2539.34
2545.6
2557.47
2572.55
2583.34
2588.99
2593.23
2599.1
2609.25
2626.26
2650
2674.93
2696.07
2709.54
2717.85
2723.17
2731.04
2747.4
2773.11
2784.75
2787.99
2758.17
2666.54
2609.41
2604.37
2611.97
2632.65
2658.37
2676.89
2686.91
2690.38
2692.53
2697.62
2709.04
2725.95
2744.82
2760.93
2769.97
2772.74
2772.38
2775.16
2789.02
2821.96
2859.17
2877.45
2880.51
2842.09
2762.91
2735.7
2737.05
2747.75
2765.4
2779.43
2785.48
2787.82
2789.83
2794.87
2805.26
2821.27
2839.81
2852.25
2859.51
2862.75
2864.16
2863.49
2863.6
2864.61
2861.48
2853.29
2828.84
2772.07
2720.66
2711.98
2714.74
2728.21
2750.6
2773.49
2789.13
2801.12
2812.38
2822.9
2836.54
2855.97
2880.3
2902.11
2914.28
2920.18
2925.31
2932.95
2944.78
2962.85
2979.02
2985.3
2987.22
2971.38
2923.53
2892.79
2894.31
2900.19
2908.16
2912.39
2912.4
2909.74
2907.4
2907.06
2908.65
2913.36
2921.08
2934.6
2950.63
2962.46
2971.82
2981.99
2992.39
3004.81
3015.04
3017.61
3017.68
3007.3
2969.36
2933.19
2929.01
2932.23
2941.99
2958.85
2975.35
2984.87
2991.98
3000.69
3011.35
3023.5
3037.89
3054.54
3070.91
3080.45
3084.62
3089.18
3094.11
3099.73
3103.31
3101.74
3092.18
3071.73
3035.64
2987.17
2962.09
2961.04
2967.15
2978.65
2996.46
3015.91
3029.54
3038.42
3046.14
3054.89
3064.93
3077.98
3096.17
3118.99
3138.23
3147.84
3154.48
3163.04
3175.49
3195.53
3223.1
3243.67
3255.19
3250.53
3215.88
3164.72
3152.06
3152.51
3160.76
3176
3191.42
3201.48
3206.89
3211.49
3216.83
3224.06
3235.12
3251.23
3272.95
3287.5
3292.8
3294.21
3296.27
3299.48
3306.27
3319.41
3334.41
3343.24
3347.58
3334.55
3293.93
3268.45
3268.61
3274.24
3286.89
3303.5
3313.81
3320.49
3325.46
3330.53
3337.11
3346.51
3359.23
3383.72
3100.3
2563.41
1956.34
1816.59
1826.72
1875.54
1929.75
1999.86
2072.45
2153.17
2242.91
2340.94
2422.74
2460.84
2472.47
2465.88
2458.18
2453.42
2447.27
2394.49
2171.37
2006.1
2021.61
2058.74
2097.79
2129.72
2157.2
2187.63
2225.92
2271.61
2316.71
2353.65
2381.43
2404.5
2427.79
2454.81
2488.63
2533.23
2587.79
2616.84
2620.63
2598.1
2434.01
2276.3
2277.8
2304.59
2331.06
2348.98
2359.03
2366.51
2375.94
2390.56
2413.46
2444.28
2477.99
2508.03
2532.1
2551.88
2569.47
2586.97
2608.18
2639.41
2678.48
2692.01
2690.46
2644.92
2504.79
2435.09
2445.19
2465.07
2484.14
2496.31
2500.89
2502.73
2506.46
2514.9
2529.97
2551.29
2576.1
2599.79
2617.59
2630.74
2643.85
2659.67
2678.68
2705.51
2726.28
2724.68
2715.35
2654.55
2556.68
2532.6
2541.99
2555.4
2571.62
2583.64
2589.98
2593.75
2598.91
2608.42
2624.8
2648.93
2674.41
2695.06
2707.33
2714
2715.69
2719.22
2732.45
2759.74
2777.01
2786.27
2762.44
2677.65
2613.25
2604.73
2608.89
2626.55
2649.63
2667.75
2679.68
2686.76
2692.76
2700.77
2713.65
2731.51
2751.48
2767.09
2774.19
2775.28
2773.65
2774.45
2786.45
2817.21
2853.01
2871.22
2874.24
2837.42
2759.13
2730.01
2729.97
2741.05
2760.79
2778.57
2787.94
2793.05
2796.78
2801.43
2810.17
2824.3
2840.2
2850.8
2855.78
2855.93
2854.86
2852.62
2852.26
2854.67
2854.17
2850.2
2831.43
2777.11
2724.17
2715.08
2718.33
2731.59
2753.33
2776.17
2791.35
2802.33
2812.5
2822.01
2834.34
2852.11
2875.29
2896.98
2909.35
2914.82
2919.03
2925.98
2937.66
2955.88
2973.93
2981.64
2983.57
2969.19
2923.38
2892.67
2893.63
2900
2910.41
2917.49
2919.26
2917.69
2914.24
2912.2
2912.47
2915.47
2922.52
2934.69
2949.83
2960.62
2968
2975.93
2985.81
2999.53
3011.67
3015.86
3017.07
3006.9
2967.45
2931.2
2927.43
2929.6
2937.92
2953.66
2971.37
2982.99
2991.53
3001.71
3014.83
3029.67
3045.75
3062.4
3076.98
3084.27
3087.07
3089.82
3092
3094.47
3095.6
3092.71
3083.7
3066.12
3032.14
2983.01
2956
2954.33
2959.81
2970.36
2986.61
3005.31
3018.66
3026.76
3033.83
3042.65
3054.24
3069.97
3091.05
3117.42
3140.2
3152.89
3161.26
3170.17
3182.68
3201.8
3228.83
3249.21
3259.6
3256.46
3224.13
3173.78
3162.66
3166.53
3178.3
3195.99
3213.4
3223.52
3228.59
3231.12
3232.58
3234.08
3237.99
3248.34
3264.96
3279.58
3285.9
3290.66
3297.22
3305.61
3317.68
3334.85
3349.88
3357.16
3358.3
3341.97
3299.09
3274.99
3274.8
3279.35
3291.59
3308.08
3319.78
3326.74
3332.81
3339.79
3348.66
3360.14
3375.78
3402.38
3100.43
2573.26
1948.78
1806.7
1816.18
1868.48
1929.38
2004.63
2082.99
2166.38
2258.6
2353.3
2428.04
2463.29
2482.41
2477.16
2474.76
2471.08
2463.11
2399.83
2165.42
2007.69
2020.97
2051.13
2088.41
2121.63
2152.54
2188.54
2234.92
2286.22
2331.66
2365.45
2390.19
2411.99
2435.43
2463.19
2496.51
2540.6
2591.33
2615.67
2618.81
2589.51
2415.84
2276.66
2283.93
2310.48
2333.84
2349.66
2358.47
2365.1
2373.9
2388.71
2414
2449.35
2486.67
2517.47
2538.86
2555.52
2570.74
2587.19
2608.05
2636.82
2671.97
2684.19
2680.08
2636.11
2503.37
2436.62
2447.82
2473.87
2494.09
2506.18
2510.98
2512.73
2515.85
2522.76
2535.16
2554.12
2579.51
2607.49
2630.81
2645.92
2657.7
2669.95
2685.79
2706.97
2723.7
2720.38
2707.04
2650.86
2552.68
2526.48
2537.6
2555.11
2572.74
2585.5
2591.29
2593.6
2597.18
2604.96
2620.51
2644.9
2670.74
2691.08
2702.5
2707.21
2706.55
2707.96
2720.62
2750.07
2773.84
2788.98
2770.13
2691.74
2619.66
2607.72
2608.93
2623.73
2642.89
2658.51
2670.57
2681.43
2692.19
2704.98
2721.32
2739.87
2758.13
2771.31
2776.86
2777.39
2774.95
2775.14
2785.81
2813.94
2846.67
2864.06
2865.17
2828.15
2752.7
2723.26
2721.97
2733.37
2755.2
2776.94
2789.7
2796.59
2800.8
2804.78
2810.76
2820.28
2832.03
2840.47
2843.24
2841.95
2840.77
2840.22
2846.15
2857.98
2862.81
2861.02
2844.78
2790.9
2733.71
2723.39
2726.55
2738.19
2757.79
2779.61
2794.74
2805.15
2814.3
2823.08
2834.26
2850.38
2871.79
2892.54
2904.91
2910.42
2914.98
2922.42
2934.1
2951.32
2967.93
2974.76
2976.6
2963.65
2918.49
2886.8
2886.94
2892.11
2904.2
2916.33
2921.03
2922.25
2921.02
2918.78
2919.9
2924.01
2928.74
2939.15
2953.28
2961.82
2966.68
2972.44
2980.9
2994.13
3007.6
3013.81
3016.56
3007
2967.49
2930.55
2926.69
2928.36
2936.26
2951.73
2969.93
2982.56
2992.06
3003.04
3017.18
3032.52
3048.17
3063.89
3078.66
3085.56
3086.83
3085.93
3082.76
3081.71
3083.95
3087.57
3086.99
3076.74
3045.51
2990.8
2957.38
2954.82
2959.69
2969.08
2983.14
2999.69
3011.23
3017.83
3024.08
3032.8
3045.53
3063.48
3087.92
3117.61
3143.84
3159.41
3169.49
3179.27
3192.68
3212.19
3237.79
3254.92
3262.17
3260.28
3229.78
3179.86
3169.54
3176.75
3190.69
3210.75
3230.6
3241.17
3245.4
3245.85
3244.79
3243.62
3243.85
3248.91
3261.19
3275.92
3284.67
3292.26
3301.37
3313.6
3328.76
3347.33
3360.6
3365.18
3363.89
3345.5
3304.31
3282.68
3281.61
3285.34
3298.19
3314.73
3327.87
3335.2
3341.84
3350.31
3361.7
3376.84
3396.24
3423.57
3100.05
2515.55
1938.45
1795.49
1805.41
1858.86
1921.87
2003.55
2087.74
2174.49
2268.69
2358.03
2427.53
2459.33
2484.06
2493.37
2497.13
2491.29
2479.4
2406.74
2161.39
2007.68
2018.1
2045.7
2082.69
2117.37
2151.77
2194.1
2245.85
2297.8
2341.12
2371.86
2394.41
2415.43
2440.04
2471.25
2509.37
2557.21
2603.64
2622.98
2624
2583.4
2396.72
2274.08
2286.22
2313.39
2335.36
2349.7
2357.09
2362.35
2369.98
2384.91
2413.25
2453
2494.37
2525.9
2545.21
2559.41
2571.87
2585.95
2605.97
2633.05
2668.65
2683.44
2677.9
2633.64
2500.84
2434.3
2446.44
2477.33
2499.6
2512.39
2517.2
2518.65
2522.06
2529.6
2542.15
2562.23
2588.12
2616.73
2639.29
2654.03
2664.73
2675.26
2689.25
2709.64
2725.42
2721.48
2704.59
2650.06
2549.66
2520.96
2533.3
2556.66