/*--------------------------------*- C++ -*----------------------------------*\
| =========                 |                                                 |
| \\      /  F ield         | OpenFOAM: The Open Source CFD Toolbox           |
|  \\    /   O peration     | Version:  2306                                  |
|   \\  /    A nd           | Website:  www.openfoam.com                      |
|    \\/     M anipulation  |                                                 |
\*---------------------------------------------------------------------------*/
FoamFile
{
    version     2.0;
    format      ascii;
    arch        "LSB;label=32;scalar=64";
    class       volVectorField;
    location    "0.2";
    object      U;
}
// * * * * * * * * * * * * * * * * * * * * * * * * * * * * * * * * * * * * * //

dimensions      [0 1 -1 0 0 0 0];

internalField   nonuniform List<vector> 
6000
(
(500 3.70033e-16 0)
(500 -7.382e-14 0)
(500 -1.26214e-13 0)
(500 -2.76588e-14 0)
(500 1.11841e-13 0)
(500 5.57259e-14 0)
(500 -1.70056e-14 0)
(500 -4.90904e-14 0)
(500 -1.19103e-13 0)
(500 -1.06106e-13 0)
(500 -1.20804e-13 0)
(500 -1.69459e-13 0)
(500 -1.09508e-13 0)
(500 -7.80748e-14 0)
(500 -1.29409e-14 0)
(500 8.12915e-15 0)
(500 6.70857e-14 0)
(500 2.00847e-13 0)
(500 1.17331e-13 0)
(500 3.22047e-14 0)
(500 -1.11055e-13 0)
(500 -1.66513e-13 0)
(500 -1.40055e-13 0)
(500 -3.03332e-14 0)
(500 -3.54617e-14 0)
(500 7.42795e-15 0)
(500 7.14652e-14 0)
(500 1.72862e-13 0)
(500 1.83965e-13 0)
(500 1.32413e-13 0)
(500 3.91975e-14 0)
(500 1.56549e-14 0)
(500 7.96513e-14 0)
(500 1.96343e-14 0)
(500 1.53554e-13 0)
(500 1.50809e-13 0)
(500 2.45342e-13 0)
(500 1.58379e-13 0)
(500 1.23368e-13 0)
(500 6.14209e-14 0)
(500 8.25022e-14 0)
(500 5.37088e-14 0)
(500 5.31773e-14 0)
(500 7.4932e-14 0)
(500 1.62538e-13 0)
(500 1.37888e-14 0)
(500 -6.06737e-14 0)
(500 -4.34269e-14 0)
(500 -4.29422e-14 0)
(500 -1.02551e-13 0)
(500 -1.06119e-13 0)
(500 -4.6912e-14 0)
(500 2.34619e-14 0)
(500 -8.82522e-14 0)
(500 -1.59121e-14 0)
(500 -7.35654e-14 0)
(500 -1.07006e-13 0)
(500 -1.23745e-13 0)
(500 -2.05179e-13 0)
(500 -2.20975e-13 0)
(500 -1.95489e-13 0)
(500 -2.91554e-13 0)
(500 -2.51171e-13 0)
(500 -2.88274e-13 0)
(500 -1.12528e-13 0)
(500 -1.01359e-13 0)
(500 -1.58501e-13 0)
(500 -8.99107e-14 0)
(500 -3.41073e-14 0)
(500 -6.14907e-14 0)
(500 -5.61467e-14 0)
(500 -8.16835e-14 0)
(500 -1.50204e-13 0)
(500 -9.95882e-14 0)
(500 -2.37121e-15 0)
(500 -1.87337e-13 0)
(500 -6.97798e-14 0)
(500 -3.3619e-14 0)
(500 -1.60676e-14 0)
(500 -1.30912e-13 0)
(500 -5.17523e-14 0)
(500 -7.91601e-14 0)
(500 -1.52906e-13 0)
(500 -3.37187e-13 0)
(500 4.90362e-13 0)
(500 -7.38995e-13 0)
(500 -5.35162e-12 0)
(500 3.71581e-11 0)
(500 -9.44438e-11 0)
(500 1.3933e-10 0)
(500 4.28743e-10 0)
(500 -2.09999e-09 0)
(500 5.3991e-09 0)
(500 1.20347e-09 0)
(500 -3.55618e-08 0)
(500 1.36203e-07 0)
(500 -1.52186e-07 0)
(500 -1.4763e-07 0)
(499.999 1.69243e-06 0)
(499.998 -3.25714e-06 0)
(499.995 2.54543e-06 0)
(499.99 1.26551e-05 0)
(499.98 -3.67653e-05 0)
(499.961 5.39068e-05 0)
(499.926 4.60576e-05 0)
(499.867 -0.000257202 0)
(499.774 0.000503782 0)
(499.644 -0.000186877 0)
(499.511 -0.000347858 0)
(499.439 0.000336542 0)
(499.429 0.000370236 0)
(499.433 0.000149502 0)
(499.451 -3.57718e-05 0)
(499.498 -0.000141834 0)
(499.585 -5.88224e-05 0)
(499.718 1.06168e-05 0)
(499.896 -0.000307783 0)
(500.109 0.000218421 0)
(500.349 0.00108484 0)
(500.605 3.09731e-05 0)
(500.87 -0.00128989 0)
(501.137 0.000424261 0)
(501.402 0.0022486 0)
(501.665 -0.000503092 0)
(501.924 -0.00255583 0)
(502.178 0.000912266 0)
(502.423 0.00463551 0)
(502.662 0.00133983 0)
(502.899 -0.0039857 0)
(503.128 -0.00227367 0)
(503.346 0.00431311 0)
(503.551 0.00386265 0)
(503.751 -0.00301828 0)
(503.941 -0.0040571 0)
(504.116 0.00232015 0)
(504.271 0.0061575 0)
(504.414 0.000137038 0)
(504.544 -0.00475396 0)
(504.659 -0.00209383 0)
(504.754 0.003528 0)
(504.833 0.00287475 0)
(504.904 -0.00188589 0)
(504.969 -0.00264436 0)
(505.027 -0.000210757 0)
(505.079 0.00224617 0)
(505.128 0.00134097 0)
(505.178 -0.00130628 0)
(505.227 -0.00219734 0)
(505.27 -6.3077e-05 0)
(505.297 0.00161364 0)
(505.306 0.000652738 0)
(505.308 -0.000287196 0)
(505.308 -0.000704971 0)
(505.308 -0.000630207 0)
(505.306 -0.000138605 0)
(505.303 0.000238738 0)
(505.297 0.000281193 0)
(505.287 2.26278e-05 0)
(505.274 -0.000181777 0)
(505.256 -0.000203308 0)
(505.235 -0.000132411 0)
(505.213 -1.55845e-05 0)
(505.19 7.10337e-05 0)
(505.17 0.000150944 0)
(505.156 0.00015454 0)
(505.147 -5.8421e-05 0)
(505.139 -0.000112638 0)
(505.133 -0.000121248 0)
(505.128 -0.000192785 0)
(505.123 -0.000227337 0)
(505.119 -6.94472e-05 0)
(505.115 0.000115365 0)
(505.112 0.000241009 0)
(505.111 0.000331225 0)
(505.112 0.000239304 0)
(505.112 -4.5434e-05 0)
(505.112 -0.000177562 0)
(505.112 -0.000257165 0)
(505.112 -0.000253612 0)
(505.112 -7.41329e-05 0)
(505.113 9.26251e-05 0)
(505.115 0.000152833 0)
(505.12 0.00018644 0)
(505.126 7.44092e-05 0)
(505.133 -4.37656e-05 0)
(505.141 -0.000146513 0)
(505.15 -0.000226773 0)
(505.158 -0.000196566 0)
(505.167 8.762e-06 0)
(505.177 0.000194099 0)
(505.186 0.000218775 0)
(505.195 0.000191339 0)
(505.2 0.000123736 0)
(505.203 2.68989e-05 0)
(505.204 -9.63316e-05 0)
(505.204 -0.000140919 0)
(505.203 -0.000169596 0)
(505.201 -9.50685e-05 0)
(505.199 4.54875e-06 0)
(505.197 9.47659e-05 0)
(505.194 0.00016745 0)
(505.191 0.000158827 0)
(505.187 5.43271e-05 0)
(505.181 -3.46839e-05 0)
(505.174 -8.60482e-05 0)
(505.167 -0.000119001 0)
(505.16 -0.000120131 0)
(505.155 -7.50804e-05 0)
(505.151 -5.56563e-06 0)
(505.148 7.72837e-05 0)
(505.147 9.74721e-05 0)
(505.145 7.97145e-05 0)
(505.143 2.29723e-05 0)
(505.141 -4.38867e-05 0)
(505.139 -7.54423e-05 0)
(505.136 -8.88774e-05 0)
(505.132 -8.15488e-05 0)
(505.128 -4.01508e-05 0)
(505.124 2.77353e-05 0)
(505.12 5.30045e-05 0)
(505.117 8.25128e-05 0)
(505.117 5.95524e-05 0)
(505.116 2.84229e-05 0)
(505.117 3.55859e-06 0)
(505.118 -6.6139e-06 0)
(505.121 -8.60927e-06 0)
(505.126 6.37977e-07 0)
(505.132 1.51011e-05 0)
(505.14 3.82122e-05 0)
(505.149 5.25495e-05 0)
(505.158 2.63171e-05 0)
(505.166 -2.31782e-05 0)
(505.174 -3.92681e-05 0)
(505.18 -4.0394e-05 0)
(505.185 -3.06828e-05 0)
(505.19 -2.73087e-05 0)
(505.194 -4.52766e-05 0)
(505.197 -5.94764e-05 0)
(505.198 5.05804e-06 0)
(505.199 5.39178e-05 0)
(505.199 6.90079e-05 0)
(505.199 6.06665e-05 0)
(505.199 -2.61713e-06 0)
(505.198 -6.41434e-05 0)
(505.197 -8.85997e-05 0)
(505.195 -8.59559e-05 0)
(505.191 -2.64908e-05 0)
(505.187 4.7553e-05 0)
(505.181 7.22237e-05 0)
(505.175 8.61468e-05 0)
(505.168 5.14139e-05 0)
(505.163 -1.48341e-05 0)
(505.158 -6.69073e-05 0)
(505.154 -8.2153e-05 0)
(505.151 -7.98584e-05 0)
(505.148 -2.99609e-05 0)
(505.146 2.8025e-05 0)
(505.144 4.68303e-05 0)
(505.143 5.23723e-05 0)
(505.142 1.82249e-05 0)
(505.141 -5.92809e-05 0)
(505.14 -9.77213e-05 0)
(505.138 -0.000102644 0)
(505.136 -4.40159e-05 0)
(505.132 5.11384e-05 0)
(505.127 8.43372e-05 0)
(505.122 0.000114421 0)
(505.117 8.47486e-05 0)
(505.115 -2.79491e-05 0)
(505.115 -8.33851e-05 0)
(505.115 -0.000100359 0)
(505.115 -9.20283e-05 0)
(505.116 -4.75745e-05 0)
(505.118 2.35923e-05 0)
(505.122 5.72658e-05 0)
(505.129 5.67313e-05 0)
(505.138 5.14334e-05 0)
(505.149 6.59209e-06 0)
(505.16 -3.4595e-05 0)
(505.171 -7.77532e-05 0)
(505.18 -5.28668e-05 0)
(505.184 8.85388e-05 0)
(505.187 0.000200587 0)
(505.189 0.00021879 0)
(505.191 0.000198937 0)
(505.194 3.50056e-05 0)
(505.198 -0.000127603 0)
(505.201 -0.00018433 0)
(505.203 -0.000206417 0)
(505.205 -0.000191892 0)
(505.204 -0.000101278 0)
(505.202 3.18402e-05 0)
(505.2 6.68863e-05 0)
(505.199 6.7014e-05 0)
(505.197 2.78702e-05 0)
(505.195 -4.46939e-05 0)
(505.191 -5.77848e-05 0)
(505.185 -5.22872e-05 0)
(505.179 2.88269e-05 0)
(505.166 0.000100474 0)
(500 -2.3697e-14 0)
(500 -1.18159e-13 0)
(500 -1.93158e-13 0)
(500 -2.31876e-14 0)
(500 4.17605e-14 0)
(500 -1.03824e-13 0)
(500 -2.03632e-13 0)
(500 -2.78536e-13 0)
(500 -2.01577e-13 0)
(500 -3.29197e-13 0)
(500 -3.9477e-13 0)
(500 -4.06585e-13 0)
(500 -2.56018e-13 0)
(500 -1.7512e-13 0)
(500 -7.90369e-15 0)
(500 -5.67726e-14 0)
(500 4.61306e-15 0)
(500 2.29473e-13 0)
(500 1.70931e-13 0)
(500 -9.74389e-14 0)
(500 -7.87435e-14 0)
(500 -2.80397e-13 0)
(500 -2.8061e-13 0)
(500 -5.01175e-14 0)
(500 7.11106e-14 0)
(500 -1.08292e-14 0)
(500 1.79808e-13 0)
(500 2.51454e-13 0)
(500 1.52693e-13 0)
(500 9.56131e-14 0)
(500 -1.04458e-14 0)
(500 2.44715e-14 0)
(500 9.45946e-14 0)
(500 1.19295e-13 0)
(500 1.43391e-13 0)
(500 7.63252e-14 0)
(500 1.96427e-13 0)
(500 1.03678e-13 0)
(500 5.06705e-14 0)
(500 -4.016e-14 0)
(500 -1.22357e-14 0)
(500 1.37159e-15 0)
(500 6.69156e-14 0)
(500 5.14119e-14 0)
(500 1.32501e-13 0)
(500 -3.10803e-14 0)
(500 -1.62032e-13 0)
(500 -1.45554e-13 0)
(500 -1.13653e-13 0)
(500 -9.6928e-14 0)
(500 -4.55123e-14 0)
(500 -2.68506e-14 0)
(500 2.34157e-15 0)
(500 -9.04504e-14 0)
(500 -1.92576e-13 0)
(500 -3.039e-13 0)
(500 -4.08658e-13 0)
(500 -4.23928e-13 0)
(500 -4.94106e-13 0)
(500 -4.66156e-13 0)
(500 -3.49701e-13 0)
(500 -4.08751e-13 0)
(500 -3.28384e-13 0)
(500 -4.66455e-13 0)
(500 -3.43472e-13 0)
(500 -1.87026e-13 0)
(500 -2.32851e-13 0)
(500 -1.45832e-13 0)
(500 -6.5169e-14 0)
(500 -5.32985e-14 0)
(500 7.18536e-14 0)
(500 -5.79967e-14 0)
(500 -3.04937e-13 0)
(500 -2.08785e-13 0)
(500 -1.39159e-13 0)
(500 -2.01975e-13 0)
(500 1.8335e-14 0)
(500 -6.16506e-14 0)
(500 -5.73919e-14 0)
(500 -1.30847e-13 0)
(500 3.4718e-15 0)
(500 3.41059e-14 0)
(500 -6.424e-14 0)
(500 -3.35809e-13 0)
(500 1.25175e-12 0)
(500 -8.40157e-13 0)
(500 -1.03528e-11 0)
(500 5.78659e-11 0)
(500 -1.57676e-10 0)
(500 1.22579e-10 0)
(500 7.74126e-10 0)
(500 -3.63442e-09 0)
(500 6.41991e-09 0)
(500 6.3257e-09 0)
(500 -6.89141e-08 0)
(500 1.9801e-07 0)
(500 -2.34775e-07 0)
(500 -4.43155e-07 0)
(499.999 2.5206e-06 0)
(499.998 -4.92412e-06 0)
(499.995 8.35558e-07 0)
(499.99 2.06862e-05 0)
(499.98 -5.5147e-05 0)
(499.961 4.44101e-05 0)
(499.926 0.000117228 0)
(499.867 -0.000435149 0)
(499.774 0.000572326 0)
(499.644 -4.26943e-05 0)
(499.511 -0.000731764 0)
(499.439 0.000207891 0)
(499.429 0.000304238 0)
(499.433 0.000161246 0)
(499.451 -9.16378e-05 0)
(499.498 -0.000200073 0)
(499.585 -8.60435e-05 0)
(499.718 -0.000116581 0)
(499.896 -0.000268614 0)
(500.109 0.000636458 0)
(500.349 0.000999124 0)
(500.605 -0.000685437 0)
(500.87 -0.00117947 0)
(501.137 0.00131726 0)
(501.402 0.00143926 0)
(501.666 -0.00230466 0)
(501.925 -0.00290157 0)
(502.177 0.00246755 0)
(502.422 0.00504519 0)
(502.664 -0.000289141 0)
(502.9 -0.00529586 0)
(503.127 -0.00141917 0)
(503.344 0.00512367 0)
(503.554 0.00251896 0)
(503.754 -0.00485089 0)
(503.942 -0.00435485 0)
(504.114 0.00446132 0)
(504.271 0.00664416 0)
(504.417 -0.000400612 0)
(504.545 -0.00565011 0)
(504.657 -0.00196773 0)
(504.753 0.00386524 0)
(504.835 0.0028031 0)
(504.907 -0.00180474 0)
(504.97 -0.00296047 0)
(505.027 0.000358004 0)
(505.079 0.003166 0)
(505.129 0.00176344 0)
(505.179 -0.00138685 0)
(505.226 -0.00244547 0)
(505.269 -0.000185363 0)
(505.297 0.00168563 0)
(505.307 0.000927359 0)
(505.309 -0.000467547 0)
(505.309 -0.00112317 0)
(505.308 -0.00111548 0)
(505.306 -0.000384946 0)
(505.303 0.000543902 0)
(505.297 0.00102542 0)
(505.287 0.000757731 0)
(505.274 3.10387e-05 0)
(505.256 -0.000464716 0)
(505.235 -0.000616898 0)
(505.213 -0.000826142 0)
(505.191 -0.000680587 0)
(505.171 0.000108097 0)
(505.156 0.0010737 0)
(505.146 0.00104326 0)
(505.138 0.000460354 0)
(505.132 3.09396e-05 0)
(505.128 -0.000542085 0)
(505.123 -0.00099553 0)
(505.119 -0.000843827 0)
(505.116 -0.000419456 0)
(505.113 0.000192321 0)
(505.112 0.000923568 0)
(505.111 0.00108077 0)
(505.111 0.000688288 0)
(505.111 9.33866e-05 0)
(505.111 -0.000492501 0)
(505.112 -0.000897232 0)
(505.112 -0.000792989 0)
(505.113 -0.000311042 0)
(505.116 0.000213423 0)
(505.12 0.00059536 0)
(505.126 0.000604438 0)
(505.132 0.000467891 0)
(505.14 9.87165e-05 0)
(505.149 -0.000431057 0)
(505.158 -0.000819596 0)
(505.167 -0.000602959 0)
(505.177 -0.000107013 0)
(505.187 0.000323335 0)
(505.195 0.000454322 0)
(505.2 0.00050935 0)
(505.203 0.000446355 0)
(505.204 0.000134456 0)
(505.204 -0.000172644 0)
(505.202 -0.000503221 0)
(505.201 -0.000525112 0)
(505.199 -0.000330929 0)
(505.197 -9.26177e-05 0)
(505.195 0.000203617 0)
(505.191 0.000404168 0)
(505.187 0.000342094 0)
(505.181 0.000174752 0)
(505.174 -3.1808e-05 0)
(505.166 -0.000225584 0)
(505.16 -0.000333279 0)
(505.155 -0.000354753 0)
(505.151 -0.000282099 0)
(505.149 2.93262e-05 0)
(505.147 0.000174632 0)
(505.145 0.000203762 0)
(505.143 0.000204934 0)
(505.141 0.000106156 0)
(505.139 2.53752e-05 0)
(505.136 -0.000103303 0)
(505.132 -0.000225044 0)
(505.128 -0.000270373 0)
(505.124 -0.000145402 0)
(505.12 -6.72606e-05 0)
(505.118 8.48218e-05 0)
(505.117 0.000183134 0)
(505.116 0.000165751 0)
(505.117 0.000107324 0)
(505.118 8.64803e-05 0)
(505.121 5.24297e-06 0)
(505.126 -9.10606e-05 0)
(505.132 -9.48315e-05 0)
(505.141 -4.2327e-05 0)
(505.15 5.51268e-05 0)
(505.158 0.000153459 0)
(505.166 0.000112664 0)
(505.174 6.19082e-05 0)
(505.18 -5.60802e-05 0)
(505.185 -9.93315e-05 0)
(505.19 -0.000143841 0)
(505.194 -0.000278891 0)
(505.197 -0.00038996 0)
(505.199 -0.000171314 0)
(505.199 0.000133106 0)
(505.199 0.000277649 0)
(505.199 0.000342955 0)
(505.198 0.000206168 0)
(505.198 -0.000106419 0)
(505.197 -0.000246874 0)
(505.195 -0.000308952 0)
(505.192 -0.000281464 0)
(505.187 -5.64164e-05 0)
(505.181 4.86208e-05 0)
(505.175 0.000225321 0)
(505.168 0.000367738 0)
(505.163 0.00021797 0)
(505.158 -5.31414e-05 0)
(505.154 -0.000120264 0)
(505.151 -0.000207234 0)
(505.148 -0.000179915 0)
(505.146 2.28088e-05 0)
(505.144 0.000128836 0)
(505.143 0.000183086 0)
(505.142 0.000203856 0)
(505.141 4.57767e-06 0)
(505.14 -0.00022166 0)
(505.138 -0.000298217 0)
(505.136 -0.000321934 0)
(505.132 -0.000124433 0)
(505.127 -1.16276e-05 0)
(505.122 0.00023678 0)
(505.117 0.000412323 0)
(505.115 0.000209557 0)
(505.114 2.59528e-05 0)
(505.115 -9.53238e-05 0)
(505.115 -0.000220559 0)
(505.116 -0.000274288 0)
(505.118 -0.000141711 0)
(505.122 -7.91777e-07 0)
(505.129 8.99747e-05 0)
(505.138 0.000149746 0)
(505.149 0.000127756 0)
(505.16 4.06209e-05 0)
(505.171 -0.000220069 0)
(505.18 -0.000428764 0)
(505.185 -0.000179816 0)
(505.187 0.000344194 0)
(505.189 0.000478996 0)
(505.191 0.000658421 0)
(505.194 0.000622907 0)
(505.198 0.000260014 0)
(505.201 -3.59644e-05 0)
(505.203 -0.000273397 0)
(505.204 -0.000475328 0)
(505.204 -0.000571487 0)
(505.202 -0.000297533 0)
(505.201 -2.47457e-05 0)
(505.199 9.3745e-05 0)
(505.197 0.000144418 0)
(505.195 -2.45537e-05 0)
(505.191 -0.000137876 0)
(505.185 -0.000188158 0)
(505.179 -0.000147702 0)
(505.166 -5.01601e-05 0)
(500 -8.46304e-15 0)
(500 -4.22225e-14 0)
(500 -7.2703e-14 0)
(500 -1.17899e-13 0)
(500 -1.77342e-13 0)
(500 -3.85492e-13 0)
(500 -4.21603e-13 0)
(500 -4.67484e-13 0)
(500 -4.57491e-13 0)
(500 -4.39246e-13 0)
(500 -5.5277e-13 0)
(500 -5.21449e-13 0)
(500 -4.30034e-13 0)
(500 -4.4251e-13 0)
(500 -2.05833e-13 0)
(500 2.17687e-14 0)
(500 -6.6776e-14 0)
(500 -2.24853e-13 0)
(500 -2.1478e-13 0)
(500 -2.99687e-13 0)
(500 -2.30076e-13 0)
(500 -2.56735e-13 0)
(500 -1.42851e-13 0)
(500 6.33839e-14 0)
(500 1.63928e-13 0)
(500 1.70842e-13 0)
(500 3.13106e-13 0)
(500 3.37498e-13 0)
(500 1.46875e-13 0)
(500 -1.081e-14 0)
(500 8.1745e-14 0)
(500 1.63138e-13 0)
(500 1.7792e-13 0)
(500 2.89274e-13 0)
(500 1.15593e-13 0)
(500 1.23003e-13 0)
(500 1.98672e-13 0)
(500 2.11843e-13 0)
(500 9.49794e-14 0)
(500 6.61544e-14 0)
(500 -1.0108e-13 0)
(500 -4.4548e-14 0)
(500 -5.47629e-14 0)
(500 -2.62148e-14 0)
(500 -1.98099e-15 0)
(500 -2.55991e-13 0)
(500 -2.69816e-13 0)
(500 -2.49321e-13 0)
(500 -2.3386e-13 0)
(500 -9.91015e-14 0)
(500 -8.7565e-14 0)
(500 -1.12009e-13 0)
(500 -2.22822e-13 0)
(500 -3.03859e-13 0)
(500 -5.81565e-13 0)
(500 -5.41541e-13 0)
(500 -5.33451e-13 0)
(500 -6.11033e-13 0)
(500 -5.3076e-13 0)
(500 -6.42752e-13 0)
(500 -6.76772e-13 0)
(500 -6.98335e-13 0)
(500 -6.94156e-13 0)
(500 -6.89949e-13 0)
(500 -5.5798e-13 0)
(500 -4.85266e-13 0)
(500 -3.73667e-13 0)
(500 -1.36085e-13 0)
(500 1.03573e-13 0)
(500 6.71577e-14 0)
(500 1.33915e-13 0)
(500 2.89359e-14 0)
(500 -1.49085e-13 0)
(500 -3.90362e-13 0)
(500 -2.7076e-13 0)
(500 -3.14078e-13 0)
(500 -2.59658e-13 0)
(500 -2.11795e-13 0)
(500 -2.65844e-13 0)
(500 -1.21655e-13 0)
(500 3.86966e-15 0)
(500 7.54303e-14 0)
(500 3.18392e-14 0)
(500 -1.96773e-13 0)
(500 1.66536e-12 0)
(500 -1.39142e-12 0)
(500 -1.29471e-11 0)
(500 7.89487e-11 0)
(500 -2.20124e-10 0)
(500 2.13424e-10 0)
(500 9.04561e-10 0)
(500 -4.64331e-09 0)
(500 8.85525e-09 0)
(500 6.43108e-09 0)
(500 -8.98677e-08 0)
(500 2.6858e-07 0)
(500 -3.23574e-07 0)
(500 -5.43156e-07 0)
(499.999 3.31872e-06 0)
(499.998 -6.39385e-06 0)
(499.995 1.19505e-06 0)
(499.99 2.63087e-05 0)
(499.98 -6.8376e-05 0)
(499.961 5.17084e-05 0)
(499.926 0.000163356 0)
(499.867 -0.000565755 0)
(499.774 0.000705738 0)
(499.645 2.42482e-05 0)
(499.511 -0.00109697 0)
(499.439 0.000451307 0)
(499.429 0.000381733 0)
(499.433 0.000278208 0)
(499.451 -3.49009e-05 0)
(499.498 -0.000301568 0)
(499.585 -0.000175986 0)
(499.718 -0.00039556 0)
(499.895 -0.000329762 0)
(500.109 0.00121891 0)
(500.349 0.000898963 0)
(500.606 -0.00157208 0)
(500.87 -0.000681523 0)
(501.136 0.00275602 0)
(501.402 0.000667122 0)
(501.666 -0.00437081 0)
(501.925 -0.00256917 0)
(502.176 0.004956 0)
(502.422 0.00493258 0)
(502.665 -0.00286854 0)
(502.9 -0.00623276 0)
(503.126 0.00135521 0)
(503.343 0.00640369 0)
(503.554 0.000134094 0)
(503.755 -0.00721771 0)
(503.942 -0.00310455 0)
(504.113 0.00690908 0)
(504.272 0.00605223 0)
(504.418 -0.00252436 0)
(504.545 -0.00643383 0)
(504.657 -0.000471552 0)
(504.751 0.00475 0)
(504.835 0.00185487 0)
(504.908 -0.00293176 0)
(504.97 -0.00286415 0)
(505.027 0.0016287 0)
(505.079 0.00356405 0)
(505.13 0.00111274 0)
(505.179 -0.00238174 0)
(505.226 -0.00273359 0)
(505.268 0.000484306 0)
(505.297 0.00198123 0)
(505.308 0.000926851 0)
(505.31 -0.000779494 0)
(505.31 -0.00124055 0)
(505.309 -0.00100992 0)
(505.307 -8.67916e-05 0)
(505.303 0.000720318 0)
(505.297 0.000867921 0)
(505.287 0.000606887 0)
(505.273 9.16533e-05 0)
(505.255 -0.000301896 0)
(505.235 -0.00055844 0)
(505.213 -0.000747107 0)
(505.192 -0.000814885 0)
(505.173 -0.000163793 0)
(505.157 0.000984396 0)
(505.145 0.00160262 0)
(505.137 0.00134387 0)
(505.131 0.000523398 0)
(505.127 -0.000602935 0)
(505.123 -0.00124648 0)
(505.12 -0.00125432 0)
(505.117 -0.000789595 0)
(505.114 0.000235207 0)
(505.112 0.00108474 0)
(505.111 0.00125608 0)
(505.111 0.00108093 0)
(505.11 0.00032499 0)
(505.111 -0.000476303 0)
(505.111 -0.00103159 0)
(505.113 -0.00114741 0)
(505.114 -0.000751299 0)
(505.117 7.92189e-05 0)
(505.12 0.000639143 0)
(505.125 0.000871298 0)
(505.132 0.000710064 0)
(505.14 0.000223175 0)
(505.148 -0.000480759 0)
(505.158 -0.000908072 0)
(505.168 -0.000754097 0)
(505.178 -0.000341055 0)
(505.188 0.000214104 0)
(505.196 0.000407633 0)
(505.2 0.000688844 0)
(505.203 0.00075137 0)
(505.203 0.000480149 0)
(505.203 -8.06899e-05 0)
(505.202 -0.000551168 0)
(505.201 -0.000645029 0)
(505.2 -0.000517255 0)
(505.198 -0.000171493 0)
(505.195 0.000239413 0)
(505.192 0.000462295 0)
(505.187 0.000424235 0)
(505.18 0.000208849 0)
(505.173 -4.07612e-05 0)
(505.166 -0.000197168 0)
(505.16 -0.000315052 0)
(505.155 -0.000354113 0)
(505.151 -0.000187702 0)
(505.149 9.34908e-05 0)
(505.147 0.000158438 0)
(505.145 0.000177459 0)
(505.143 0.000132714 0)
(505.141 1.39281e-05 0)
(505.138 -4.40064e-05 0)
(505.135 -0.00011296 0)
(505.132 -0.000176682 0)
(505.128 -0.000182848 0)
(505.124 -9.40841e-05 0)
(505.12 -4.21788e-05 0)
(505.118 3.87386e-05 0)
(505.117 9.09116e-05 0)
(505.116 0.000107593 0)
(505.117 0.000113551 0)
(505.118 0.000109393 0)
(505.121 8.57625e-05 0)
(505.126 -1.45733e-05 0)
(505.132 -1.94973e-05 0)
(505.141 -1.34807e-05 0)
(505.15 -2.15764e-05 0)
(505.158 5.5729e-05 0)
(505.166 0.000105963 0)
(505.174 6.98793e-05 0)
(505.18 -6.56269e-06 0)
(505.185 -0.000177689 0)
(505.19 -0.000223536 0)
(505.194 -0.00027622 0)
(505.197 -0.000264701 0)
(505.199 -0.000146808 0)
(505.2 0.000126445 0)
(505.199 0.000263323 0)
(505.199 0.000254237 0)
(505.198 0.000180599 0)
(505.198 -8.67156e-05 0)
(505.197 -0.000257294 0)
(505.195 -0.000255622 0)
(505.192 -0.000208887 0)
(505.187 -4.82727e-05 0)
(505.181 6.04257e-05 0)
(505.175 0.000204688 0)
(505.168 0.000301605 0)
(505.163 0.000214034 0)
(505.158 -7.6244e-05 0)
(505.154 -0.000159808 0)
(505.15 -0.000198454 0)
(505.148 -0.000139042 0)
(505.146 4.55078e-05 0)
(505.145 0.000135813 0)
(505.143 0.000189298 0)
(505.142 0.000180981 0)
(505.141 2.12246e-05 0)
(505.14 -0.000238688 0)
(505.138 -0.00030343 0)
(505.136 -0.000272782 0)
(505.132 -0.000129146 0)
(505.128 -3.28046e-05 0)
(505.122 0.000244659 0)
(505.117 0.000417274 0)
(505.114 0.000225959 0)
(505.114 4.34938e-05 0)
(505.114 -8.65343e-05 0)
(505.115 -0.000233427 0)
(505.116 -0.000283036 0)
(505.118 -0.000147692 0)
(505.123 -3.67934e-05 0)
(505.129 1.46924e-05 0)
(505.138 5.4512e-05 0)
(505.149 0.000103436 0)
(505.16 5.67544e-05 0)
(505.171 -0.000197296 0)
(505.179 -0.000371889 0)
(505.185 -0.000225786 0)
(505.188 0.000331017 0)
(505.19 0.000549468 0)
(505.192 0.000660342 0)
(505.194 0.000611049 0)
(505.197 0.000361075 0)
(505.2 5.88024e-05 0)
(505.203 -0.000188387 0)
(505.204 -0.000340781 0)
(505.204 -0.000563865 0)
(505.203 -0.000506773 0)
(505.201 -0.000187758 0)
(505.2 -4.27058e-05 0)
(505.197 6.57673e-05 0)
(505.195 6.74804e-06 0)
(505.191 -7.3658e-05 0)
(505.185 -8.64485e-05 0)
(505.178 -6.49364e-05 0)
(505.167 -3.22267e-05 0)
(500 -4.04692e-14 0)
(500 2.71141e-14 0)
(500 -9.97882e-14 0)
(500 -4.03812e-13 0)
(500 -4.87104e-13 0)
(500 -5.20659e-13 0)
(500 -5.0473e-13 0)
(500 -5.73777e-13 0)
(500 -7.12105e-13 0)
(500 -6.23367e-13 0)
(500 -6.45187e-13 0)
(500 -4.58226e-13 0)
(500 -4.12337e-13 0)
(500 -5.97264e-13 0)
(500 -4.46146e-13 0)
(500 -3.07125e-13 0)
(500 -3.52838e-13 0)
(500 -5.36829e-13 0)
(500 -6.1957e-13 0)
(500 -4.83112e-13 0)
(500 -3.99841e-13 0)
(500 -2.32102e-13 0)
(500 -1.90448e-13 0)
(500 -1.09324e-13 0)
(500 9.55448e-14 0)
(500 5.55701e-13 0)
(500 5.09073e-13 0)
(500 4.18118e-13 0)
(500 7.49135e-14 0)
(500 2.1484e-14 0)
(500 1.4837e-13 0)
(500 8.67738e-14 0)
(500 4.56456e-14 0)
(500 1.97537e-13 0)
(500 1.98453e-13 0)
(500 3.64899e-13 0)
(500 2.65702e-13 0)
(500 2.63466e-13 0)
(500 2.12947e-13 0)
(500 1.74908e-13 0)
(500 8.22474e-16 0)
(500 9.1132e-14 0)
(500 3.12519e-15 0)
(500 -4.29333e-14 0)
(500 -3.20817e-14 0)
(500 -1.48284e-13 0)
(500 -1.52509e-13 0)
(500 -1.43483e-13 0)
(500 -2.49521e-13 0)
(500 -1.77672e-13 0)
(500 -2.32207e-13 0)
(500 -4.11562e-13 0)
(500 -3.49878e-13 0)
(500 -4.43059e-13 0)
(500 -6.06675e-13 0)
(500 -4.95254e-13 0)
(500 -3.39753e-13 0)
(500 -4.24131e-13 0)
(500 -4.27014e-13 0)
(500 -6.73191e-13 0)
(500 -1.01196e-12 0)
(500 -9.47169e-13 0)
(500 -8.87257e-13 0)
(500 -6.71394e-13 0)
(500 -5.64202e-13 0)
(500 -6.62089e-13 0)
(500 -5.93047e-13 0)
(500 -2.67304e-13 0)
(500 -1.02013e-13 0)
(500 -1.16339e-13 0)
(500 -2.00371e-13 0)
(500 -2.26867e-13 0)
(500 -2.62757e-13 0)
(500 -5.93797e-13 0)
(500 -6.10819e-13 0)
(500 -4.59723e-13 0)
(500 -4.8293e-13 0)
(500 -2.8032e-13 0)
(500 -2.279e-13 0)
(500 -4.10728e-14 0)
(500 -2.11491e-15 0)
(500 1.16855e-13 0)
(500 4.28167e-14 0)
(500 -1.55264e-13 0)
(500 1.73307e-12 0)
(500 -1.77988e-12 0)
(500 -1.37789e-11 0)
(500 8.61091e-11 0)
(500 -2.48346e-10 0)
(500 2.75804e-10 0)
(500 8.55145e-10 0)
(500 -4.83457e-09 0)
(500 9.1055e-09 0)
(500 7.77815e-09 0)
(500 -9.82581e-08 0)
(500 2.86825e-07 0)
(500 -3.32675e-07 0)
(500 -6.17111e-07 0)
(499.999 3.5255e-06 0)
(499.998 -6.56821e-06 0)
(499.995 3.56352e-07 0)
(499.99 2.90461e-05 0)
(499.98 -6.92465e-05 0)
(499.961 3.7347e-05 0)
(499.926 0.000209341 0)
(499.867 -0.000621469 0)
(499.774 0.000689232 0)
(499.645 0.000220926 0)
(499.511 -0.00143759 0)
(499.439 0.000532158 0)
(499.429 0.00043906 0)
(499.433 0.000343781 0)
(499.451 5.36044e-05 0)
(499.498 -0.000244424 0)
(499.586 -0.000260477 0)
(499.719 -0.000747195 0)
(499.895 -0.000283452 0)
(500.109 0.0015788 0)
(500.349 0.00044902 0)
(500.606 -0.00217786 0)
(500.87 0.000545246 0)
(501.136 0.00375127 0)
(501.403 -0.000755455 0)
(501.666 -0.00579528 0)
(501.924 -0.000942641 0)
(502.175 0.00664435 0)
(502.423 0.00336293 0)
(502.665 -0.00552213 0)
(502.9 -0.00525485 0)
(503.125 0.00478537 0)
(503.343 0.00636524 0)
(503.555 -0.00268285 0)
(503.755 -0.008425 0)
(503.941 -0.000364356 0)
(504.112 0.00828557 0)
(504.273 0.00416147 0)
(504.418 -0.00478822 0)
(504.545 -0.00577672 0)
(504.656 0.00211011 0)
(504.751 0.00471635 0)
(504.836 0.000212329 0)
(504.908 -0.00385836 0)
(504.971 -0.00186826 0)
(505.027 0.0029419 0)
(505.079 0.00334076 0)
(505.13 3.34763e-05 0)
(505.179 -0.00318764 0)
(505.226 -0.00229459 0)
(505.267 0.00159419 0)
(505.296 0.00186239 0)
(505.308 0.000309306 0)
(505.31 -0.000982809 0)
(505.31 -0.000989888 0)
(505.309 -0.000346349 0)
(505.307 0.000400422 0)
(505.303 0.000502945 0)
(505.297 0.000263832 0)
(505.286 -6.27479e-05 0)
(505.273 -0.00018169 0)
(505.255 -0.000237568 0)
(505.235 -8.05756e-05 0)
(505.214 -0.000136681 0)
(505.193 -0.00034629 0)
(505.174 -1.86829e-05 0)
(505.157 0.000355525 0)
(505.145 0.000787426 0)
(505.136 0.000774825 0)
(505.13 0.000260249 0)
(505.127 -0.000612828 0)
(505.124 -0.000952803 0)
(505.121 -0.000677824 0)
(505.118 -6.78332e-05 0)
(505.115 0.000520432 0)
(505.113 0.000707169 0)
(505.111 0.000713705 0)
(505.11 0.000353838 0)
(505.11 -0.000202882 0)
(505.11 -0.000495819 0)
(505.111 -0.000712512 0)
(505.113 -0.000528952 0)
(505.115 -2.62021e-05 0)
(505.117 0.000260134 0)
(505.121 0.000496372 0)
(505.126 0.000530876 0)
(505.131 0.000213676 0)
(505.139 -0.00027668 0)
(505.148 -0.000566322 0)
(505.158 -0.000611798 0)
(505.168 -0.000476812 0)
(505.179 -4.99683e-05 0)
(505.188 0.000367462 0)
(505.196 0.000469098 0)
(505.201 0.000607515 0)
(505.202 0.000444902 0)
(505.203 -3.15931e-06 0)
(505.203 -0.000329223 0)
(505.202 -0.00048639 0)
(505.201 -0.000452378 0)
(505.2 -0.000221583 0)
(505.198 0.000165398 0)
(505.196 0.000399642 0)
(505.192 0.000386557 0)
(505.186 0.000274728 0)
(505.18 -4.58694e-06 0)
(505.173 -0.000164821 0)
(505.166 -0.000224082 0)
(505.16 -0.000223874 0)
(505.155 -0.000167311 0)
(505.151 3.28711e-05 0)
(505.149 0.00013098 0)
(505.147 9.30583e-05 0)
(505.145 1.1011e-05 0)
(505.143 -7.6959e-05 0)
(505.141 -0.000100483 0)
(505.138 -7.78575e-05 0)
(505.135 -2.42526e-05 0)
(505.132 1.9527e-05 0)
(505.128 1.05507e-05 0)
(505.124 -6.65351e-05 0)
(505.12 -6.8419e-05 0)
(505.118 -9.22793e-05 0)
(505.117 -8.76278e-05 0)
(505.117 4.33402e-05 0)
(505.117 0.000152048 0)
(505.118 0.000197061 0)
(505.121 0.000203525 0)
(505.126 0.000129169 0)
(505.132 3.91796e-05 0)
(505.14 -3.77997e-05 0)
(505.15 -0.000155393 0)
(505.159 -0.000161582 0)
(505.166 4.27122e-05 0)
(505.174 8.27437e-05 0)
(505.18 5.66625e-05 0)
(505.185 -6.32423e-05 0)
(505.19 -0.000186627 0)
(505.194 -0.000225137 0)
(505.197 -0.000223525 0)
(505.199 -0.000158204 0)
(505.2 -3.25348e-05 0)
(505.199 0.000140398 0)
(505.199 0.000183343 0)
(505.198 0.000149858 0)
(505.198 5.53229e-05 0)
(505.197 -7.82833e-05 0)
(505.195 -9.04114e-05 0)
(505.192 -6.08963e-05 0)
(505.187 -6.34508e-06 0)
(505.182 5.6518e-06 0)
(505.175 3.15884e-05 0)
(505.169 7.08917e-05 0)
(505.163 5.94823e-05 0)
(505.158 -8.0104e-05 0)
(505.153 -0.000146107 0)
(505.15 -0.000152925 0)
(505.148 -0.000112028 0)
(505.146 3.54282e-05 0)
(505.145 9.05045e-05 0)
(505.143 9.36541e-05 0)
(505.142 6.75856e-05 0)
(505.141 -1.70515e-05 0)
(505.139 -0.000185281 0)
(505.138 -0.000263393 0)
(505.136 -0.000189509 0)
(505.132 -7.01638e-05 0)
(505.128 3.77994e-05 0)
(505.123 0.000239251 0)
(505.118 0.000443972 0)
(505.114 0.000258746 0)
(505.114 9.0001e-05 0)
(505.114 -6.31517e-05 0)
(505.115 -0.00028114 0)
(505.116 -0.000367171 0)
(505.119 -0.000227917 0)
(505.123 -1.15397e-05 0)
(505.13 1.64695e-05 0)
(505.139 2.38954e-05 0)
(505.149 8.81301e-05 0)
(505.16 0.000125191 0)
(505.17 -5.50583e-05 0)
(505.179 -0.000316098 0)
(505.185 -0.000300699 0)
(505.188 6.49566e-05 0)
(505.19 0.000447382 0)
(505.192 0.000559864 0)
(505.194 0.00055151 0)
(505.197 0.000544482 0)
(505.2 0.000295803 0)
(505.202 -2.3992e-05 0)
(505.203 -0.000174026 0)
(505.203 -0.00044976 0)
(505.203 -0.00059821 0)
(505.202 -0.000524339 0)
(505.2 -0.000193212 0)
(505.198 2.6761e-05 0)
(505.195 5.16777e-05 0)
(505.19 4.87871e-05 0)
(505.184 2.01157e-05 0)
(505.178 1.35733e-05 0)
(505.167 -3.78856e-08 0)
(500 -3.92452e-15 0)
(500 -1.98961e-13 0)
(500 -4.66856e-13 0)
(500 -7.88604e-13 0)
(500 -7.95862e-13 0)
(500 -8.82048e-13 0)
(500 -7.74794e-13 0)
(500 -7.14248e-13 0)
(500 -7.81071e-13 0)
(500 -8.90194e-13 0)
(500 -8.79339e-13 0)
(500 -5.37899e-13 0)
(500 -5.32934e-13 0)
(500 -5.96122e-13 0)
(500 -8.01045e-13 0)
(500 -8.28122e-13 0)
(500 -5.51182e-13 0)
(500 -7.29807e-13 0)
(500 -7.589e-13 0)
(500 -5.92766e-13 0)
(500 -2.35534e-13 0)
(500 -3.20247e-13 0)
(500 -2.86486e-13 0)
(500 -1.76626e-13 0)
(500 1.22501e-13 0)
(500 3.81478e-13 0)
(500 3.53467e-13 0)
(500 3.58699e-13 0)
(500 3.0109e-13 0)
(500 1.39951e-13 0)
(500 8.69605e-14 0)
(500 5.74569e-14 0)
(500 7.64103e-14 0)
(500 4.05541e-14 0)
(500 2.48474e-13 0)
(500 2.63502e-13 0)
(500 1.31571e-13 0)
(500 2.78828e-14 0)
(500 5.59835e-14 0)
(500 1.13267e-13 0)
(500 6.36794e-14 0)
(500 1.90023e-13 0)
(500 1.4286e-13 0)
(500 7.92161e-14 0)
(500 -4.15542e-14 0)
(500 -6.40225e-14 0)
(500 -1.84069e-13 0)
(500 -1.89093e-13 0)
(500 -1.25941e-13 0)
(500 -1.84652e-13 0)
(500 -3.30857e-13 0)
(500 -4.9044e-13 0)
(500 -4.25721e-13 0)
(500 -3.29375e-13 0)
(500 -5.02699e-13 0)
(500 -4.57789e-13 0)
(500 -2.91435e-13 0)
(500 -3.53608e-13 0)
(500 -5.38044e-13 0)
(500 -6.47632e-13 0)
(500 -9.05705e-13 0)
(500 -8.74778e-13 0)
(500 -8.55431e-13 0)
(500 -8.11763e-13 0)
(500 -8.41761e-13 0)
(500 -9.16128e-13 0)
(500 -9.55056e-13 0)
(500 -7.68842e-13 0)
(500 -5.64324e-13 0)
(500 -4.59165e-13 0)
(500 -5.19712e-13 0)
(500 -6.25641e-13 0)
(500 -5.71125e-13 0)
(500 -6.04571e-13 0)
(500 -5.99909e-13 0)