/*--------------------------------*- C++ -*----------------------------------*\
| =========                 |                                                 |
| \\      /  F ield         | OpenFOAM: The Open Source CFD Toolbox           |
|  \\    /   O peration     | Version:  2306                                  |
|   \\  /    A nd           | Website:  www.openfoam.com                      |
|    \\/     M anipulation  |                                                 |
\*---------------------------------------------------------------------------*/
FoamFile
{
    version     2.0;
    format      ascii;
    arch        "LSB;label=32;scalar=64";
    class       volVectorField;
    location    "0.2";
    object      U;
}
// * * * * * * * * * * * * * * * * * * * * * * * * * * * * * * * * * * * * * //

dimensions      [0 1 -1 0 0 0 0];

internalField   nonuniform List<vector> 
6000
(
(-2329.26 -0.721494 0)
(-820.526 -3.40062 0)
(-95.0672 6.18262 0)
(-213.999 7.70172 0)
(-263.509 7.39921 0)
(-260.819 5.86943 0)
(-199.024 7.51921 0)
(-112.24 7.46026 0)
(-7.94349 7.22118 0)
(100.828 5.69939 0)
(212.983 3.90078 0)
(319.7 1.74687 0)
(405.482 -0.314401 0)
(441.676 -4.74894 0)
(432.779 -7.34957 0)
(417.231 -9.01486 0)
(407.477 -9.26139 0)
(397.304 -6.15783 0)
(376.7 -5.54984 0)
(285.485 -3.90932 0)
(-11.891 1.94069 0)
(-164.142 4.99165 0)
(-141.866 5.98679 0)
(-98.8009 6.55098 0)
(-49.3182 5.90312 0)
(-7.92268 4.74743 0)
(22.5474 3.44618 0)
(41.2906 1.83144 0)
(52.0372 1.04539 0)
(63.7346 -0.918754 0)
(86.9357 -2.51379 0)
(123.011 -1.9437 0)
(167.655 -2.07419 0)
(216.735 -2.8768 0)
(265.678 -1.49623 0)
(308.31 -1.35277 0)
(342.096 -1.83974 0)
(372.592 -4.39037 0)
(394.385 -5.73989 0)
(398.882 -4.75734 0)
(399.233 -2.56552 0)
(327.863 -0.0337281 0)
(89.0976 1.225 0)
(-27.0311 2.00173 0)
(-21.5811 2.52472 0)
(0.650905 3.44889 0)
(31.6632 3.67814 0)
(57.0721 3.02884 0)
(77.1861 1.99661 0)
(94.2607 1.34329 0)
(107.449 0.75172 0)
(115.374 0.0144295 0)
(120.181 -0.56334 0)
(127.421 -1.10182 0)
(141.378 -1.713 0)
(161.347 -1.70716 0)
(183.263 -1.66515 0)
(203.014 -1.74796 0)
(216.837 -2.23017 0)
(227.246 -2.88905 0)
(246.556 -3.02903 0)
(285.506 -2.55752 0)
(320.199 -1.70863 0)
(335 -1.18505 0)
(320.949 -0.733293 0)
(218.194 -1.04734 0)
(72.1737 -1.95357 0)
(49.9747 -2.8911 0)
(45.6181 -3.93399 0)
(53.6142 -4.23109 0)
(66.5872 -4.21345 0)
(77.6564 -3.46386 0)
(88.903 -2.9133 0)
(102.036 -2.26318 0)
(117.185 -1.96221 0)
(133.306 -1.59589 0)
(149.808 -1.20956 0)
(166.423 -1.28354 0)
(183.577 -1.99715 0)
(202.246 -2.39583 0)
(222.335 -3.47354 0)
(242.618 -4.43533 0)
(262.159 -4.77619 0)
(278.591 -4.79707 0)
(297.424 -4.46095 0)
(310.966 -3.45908 0)
(308.647 -2.24101 0)
(301.696 -0.361003 0)
(244.971 1.28662 0)
(133.038 2.58379 0)
(93.5799 3.09114 0)
(101.128 2.99169 0)
(116.794 2.38215 0)
(136.902 1.41982 0)
(151.257 0.192966 0)
(155.613 -1.082 0)
(154.068 -2.53844 0)
(154.2 -2.84614 0)
(158.777 -2.87853 0)
(167.635 -3.17349 0)
(178.897 -2.93853 0)
(192.465 -3.0275 0)
(207.454 -2.4422 0)
(219.066 -1.32493 0)
(229.953 -0.506295 0)
(238.631 0.0150391 0)
(247.306 0.171269 0)
(255.539 0.280844 0)
(266.504 0.542891 0)
(279.898 0.928112 0)
(284.951 1.51963 0)
(274.605 1.46837 0)
(243.792 1.36717 0)
(158.991 1.83764 0)
(110.269 2.17135 0)
(111.481 2.51189 0)
(123.777 2.6826 0)
(137.348 2.20995 0)
(146.501 1.69547 0)
(147.376 -0.309327 0)
(145.215 -1.48915 0)
(146.498 -3.14052 0)
(152.52 -4.3106 0)
(161.84 -4.78436 0)
(172.972 -4.56611 0)
(184.587 -3.83195 0)
(196.564 -3.36135 0)
(208.146 -2.43729 0)
(217.443 -1.56547 0)
(227.632 -1.12456 0)
(238.36 -0.502836 0)
(250.945 -0.165992 0)
(263.984 0.156766 0)
(269.051 0.894648 0)
(263.255 1.38521 0)
(247.483 1.87278 0)
(213.118 2.26408 0)
(145.118 2.52294 0)
(112.789 2.3955 0)
(113.923 2.42136 0)
(126.201 2.67026 0)
(140.494 2.97434 0)
(152.83 2.79943 0)
(158.555 2.62874 0)
(157.906 1.49866 0)
(157.26 0.318818 0)
(161.5 -0.170028 0)
(171.483 -0.841975 0)
(186.001 -1.60084 0)
(201.552 -1.71715 0)
(214.072 -1.6097 0)
(220.449 -0.981081 0)
(222.268 -0.732238 0)
(224.441 -0.828635 0)
(229.02 -1.07305 0)
(237.459 -1.83498 0)
(251.755 -2.69491 0)
(264.92 -2.87593 0)
(264.565 -2.26539 0)
(248.832 -0.718147 0)
(214.369 0.288536 0)
(150.193 1.63039 0)
(114.599 3.50285 0)
(115.939 4.51443 0)
(128.786 5.83389 0)
(149.125 6.28508 0)
(168.474 6.28078 0)
(179.766 5.2776 0)
(186.128 3.52449 0)
(191.977 1.74815 0)
(198.135 0.136081 0)
(203.402 -1.16218 0)
(206.791 -1.93323 0)
(208.456 -2.56609 0)
(208.582 -1.93549 0)
(206.929 -0.363154 0)
(204.68 1.79913 0)
(203.658 3.74008 0)
(205.026 4.76998 0)
(208.837 5.39025 0)
(218.09 5.93748 0)
(234.574 6.21267 0)
(251.939 6.22564 0)
(254.95 6.13939 0)
(247.484 5.93873 0)
(226.052 5.30596 0)
(176.32 4.30993 0)
(147.107 3.10483 0)
(146.856 2.41781 0)
(153.465 2.01717 0)
(162.417 1.32544 0)
(170.305 -0.448083 0)
(171.007 -2.11414 0)
(166.421 -2.75741 0)
(160.754 -3.38064 0)
(157.935 -3.55944 0)
(161.39 -3.60404 0)
(173.502 -3.24199 0)
(194.215 -2.89057 0)
(215.527 -2.54211 0)
(227.988 -1.55259 0)
(233.604 -0.896166 0)
(237.187 -1.30144 0)
(242.362 -2.39898 0)
(252.345 -4.45164 0)
(268.278 -6.57512 0)
(282.181 -8.39581 0)
(284.777 -10.283 0)
(276.485 -11.8004 0)
(245.178 -12.611 0)
(175.681 -11.5921 0)
(129.204 -10.2788 0)
(123.133 -8.36001 0)
(126.923 -7.37619 0)
(136.114 -5.89384 0)
(146.637 -4.421 0)
(152.887 -3.97684 0)
(154.317 -3.87673 0)
(151.874 -3.92054 0)
(147.433 -3.7957 0)
(144.706 -3.05748 0)
(147.549 -2.0621 0)
(160.142 -1.09518 0)
(182.217 -0.36393 0)
(201.132 0.452969 0)
(209.564 0.935768 0)
(215.033 1.19539 0)
(216.962 1.31358 0)
(217.078 1.49562 0)
(218.646 2.12974 0)
(223.074 2.89056 0)
(232.433 3.71322 0)
(238.222 4.5319 0)
(239.346 5.06195 0)
(232.68 5.53523 0)
(205.243 5.78106 0)
(168.523 5.61667 0)
(156.755 5.31053 0)
(151.76 5.19121 0)
(154.238 5.08335 0)
(162.933 4.80185 0)
(171.315 4.68867 0)
(173.411 4.88567 0)
(175.41 4.76582 0)
(177.062 4.3152 0)
(180.142 3.52088 0)
(184.344 2.36426 0)
(191.594 1.25322 0)
(203.91 0.21435 0)
(217.819 -0.211172 0)
(224.116 0.372748 0)
(228.004 1.03256 0)
(227.641 1.77448 0)
(224.853 2.58561 0)
(223.51 3.28559 0)
(224.867 3.84478 0)
(228.984 4.31742 0)
(233.377 4.43238 0)
(235.158 4.16303 0)
(231.599 3.55089 0)
(213.278 2.35897 0)
(182.53 0.38525 0)
(171.533 -1.68956 0)
(167.739 -2.88901 0)
(169.513 -3.7222 0)
(174.65 -4.28165 0)
(177.842 -4.08302 0)
(178.339 -3.60263 0)
(178.095 -3.01417 0)
(175.514 -2.12631 0)
(174.46 -1.13096 0)
(175.289 0.0971855 0)
(179.136 1.47755 0)
(185.686 2.6749 0)
(197.387 3.77453 0)
(211.16 4.55064 0)
(219.929 4.78813 0)
(223.73 4.70187 0)
(224.892 4.30197 0)
(225.735 3.95851 0)
(231.089 3.32941 0)
(242.045 2.6045 0)
(249.712 2.3559 0)
(248.826 2.11006 0)
(244.838 1.78176 0)
(222.836 1.83682 0)
(181.787 2.64621 0)
(164.393 3.30783 0)
(164.772 4.02043 0)
(169.772 5.1813 0)
(176.521 6.15822 0)
(183.758 6.50306 0)
(187.482 6.31346 0)
(187.473 5.75759 0)
(186.223 5.36997 0)
(185.705 4.80188 0)
(185.735 4.03784 0)
(188.429 3.30123 0)
(195.042 1.77325 0)
(216.031 0.793514 0)
(-2327.94 -1.63108 0)
(-791.621 5.4936 0)
(-94.845 13.638 0)
(-211.854 19.868 0)
(-257.915 22.5899 0)
(-255.382 24.633 0)
(-195.749 27.9438 0)
(-110.433 28.9514 0)
(-8.23877 28.8711 0)
(97.8484 26.6576 0)
(205.439 22.6856 0)
(306.505 12.2786 0)
(388.695 -0.161483 0)
(426.494 -16.5258 0)
(426.181 -25.4488 0)
(417.528 -24.6306 0)
(412.353 -16.8443 0)
(407.036 -2.72857 0)
(384.562 1.0132 0)
(297.046 5.21854 0)
(-3.13283 14.1365 0)
(-164.16 21.106 0)
(-143.842 22.394 0)
(-102.499 21.6881 0)
(-53.7787 17.399 0)
(-13.1655 11.9375 0)
(16.611 5.92386 0)
(36.3013 -0.530166 0)
(50.7218 -2.27054 0)
(66.9439 -2.36806 0)
(92.2495 -1.90679 0)
(127.523 1.64168 0)
(170.136 2.74089 0)
(216.84 1.3248 0)
(262.593 3.31059 0)
(301.154 0.871263 0)
(333.577 -6.25122 0)
(366.543 -15.2572 0)
(393.139 -17.729 0)
(399.564 -15.2177 0)
(401.616 -12.556 0)
(335.719 -9.50842 0)
(99.5946 -0.197014 0)
(-23.919 6.74024 0)
(-20.9094 8.7138 0)
(-0.567564 10.4817 0)
(29.3271 9.97616 0)
(54.3575 7.11901 0)
(74.3849 3.37683 0)
(92.296 0.420598 0)
(106.933 -0.403733 0)
(116.365 -0.261092 0)
(122.056 0.244901 0)
(128.92 0.0746738 0)
(141.584 -1.77543 0)
(159.996 -3.17913 0)
(181.129 -4.81887 0)
(201.25 -6.20798 0)
(216.456 -7.62805 0)
(228.166 -8.51689 0)
(247.628 -8.47556 0)
(286.235 -8.58475 0)
(321.974 -9.41541 0)
(336.458 -10.1431 0)
(323.163 -10.7094 0)
(220.946 -9.67349 0)
(72.4958 -9.2905 0)
(48.9036 -11.2838 0)
(46.415 -12.4593 0)
(56.3067 -11.699 0)
(70.9753 -9.2092 0)
(82.3838 -4.73898 0)
(92.769 -1.47368 0)
(104.593 0.282722 0)
(118.101 0.164164 0)
(132.858 -1.01724 0)
(148.357 -2.04405 0)
(164.595 -2.76434 0)
(181.91 -4.13992 0)
(200.95 -5.42844 0)
(220.738 -7.07258 0)
(240.267 -8.38718 0)
(259.234 -9.01953 0)
(275.05 -9.76055 0)
(294.852 -11.7219 0)
(312.544 -12.0557 0)
(313.078 -10.8951 0)
(307.504 -7.71267 0)
(252.435 -2.21415 0)
(136.037 3.75525 0)
(92.5655 5.52711 0)
(99.4951 5.01107 0)
(113.819 2.70638 0)
(132.694 -1.07373 0)
(146.574 -5.06621 0)
(152.262 -8.57031 0)
(154.43 -9.60797 0)
(157.406 -7.08649 0)
(162.697 -3.31497 0)
(170.348 -0.89424 0)
(179.814 1.10699 0)
(191.562 1.24603 0)
(205.058 1.25302 0)
(217.094 1.00642 0)
(227.425 0.00172357 0)
(236.366 -1.39652 0)
(245.744 -3.06509 0)
(254.12 -4.61577 0)
(266.958 -4.74303 0)
(282.251 -3.08889 0)
(287.106 0.0534332 0)
(278.774 3.17145 0)
(246.366 5.65155 0)
(159.27 6.98256 0)
(110.227 7.21011 0)
(111.116 7.87779 0)
(121.708 8.03696 0)
(133.868 5.6208 0)
(142.687 2.16114 0)
(143.777 -2.77551 0)
(142.277 -6.69997 0)
(145.634 -9.43906 0)
(153.08 -10.4332 0)
(163.159 -10.526 0)
(174.665 -10.3966 0)
(186.668 -8.99862 0)
(198.942 -7.81619 0)
(210.052 -5.34616 0)
(219.047 -3.88264 0)
(228.089 -3.86005 0)
(238.385 -3.77278 0)
(251.067 -4.12745 0)
(265.284 -4.1532 0)
(271.385 -2.54098 0)
(266.156 -0.93022 0)
(251.285 1.31447 0)
(217.255 3.41576 0)
(147.875 5.08414 0)
(113.738 4.80347 0)
(114.214 4.21472 0)
(125.832 3.69714 0)
(139.225 2.65637 0)
(151.369 0.603969 0)
(157.556 -0.846654 0)
(157.109 -2.82584 0)
(157.242 -4.24513 0)
(162.231 -3.62575 0)
(172.701 -3.32654 0)
(187.134 -3.39871 0)
(202.172 -2.69844 0)
(214.234 -1.7726 0)
(220.103 -0.860276 0)
(221.32 -1.26076 0)
(222.765 -2.92012 0)
(227.048 -4.93557 0)
(235.647 -7.79665 0)
(250.948 -9.96782 0)
(266.067 -10.7222 0)
(267.28 -8.57003 0)
(254.793 -5.35863 0)
(223.849 0.812128 0)
(158.961 8.11474 0)
(119.459 14.6585 0)
(119.25 17.0338 0)
(130.963 20.2501 0)
(150.061 22.244 0)
(168.357 22.5789 0)
(179.23 21.0253 0)
(183.823 17.7222 0)
(186.231 13.04 0)
(189.713 7.07676 0)
(194.26 0.224137 0)
(199.758 -5.94428 0)
(205.417 -9.40168 0)
(209.06 -10.4205 0)
(210.267 -8.8216 0)
(209.595 -5.4655 0)
(208.387 -0.945589 0)
(208.929 3.10789 0)
(213.071 5.65978 0)
(222.121 8.47376 0)
(238.25 11.4251 0)
(254.258 13.9505 0)
(256.26 15.8863 0)
(249.002 17.3779 0)
(224.88 17.349 0)
(171.871 13.9622 0)
(143.935 9.20995 0)
(144.03 6.42261 0)
(149.369 2.50624 0)
(158.848 -1.96108 0)
(168.021 -6.50632 0)
(169.59 -10.2125 0)
(166.353 -10.8962 0)
(162.671 -10.669 0)
(161.073 -9.14431 0)
(164.721 -7.71142 0)
(176.656 -5.88798 0)
(197.491 -3.72403 0)
(218.582 -0.775934 0)
(229.91 1.95598 0)
(234.697 3.6305 0)
(237.887 4.24191 0)
(241.388 3.64162 0)
(248.243 1.13529 0)
(260.664 -4.85789 0)
(272.739 -13.9134 0)
(275.48 -22.8198 0)
(268.578 -29.0933 0)
(241.67 -34.3007 0)
(179.764 -32.8733 0)
(135.531 -28.2394 0)
(130.108 -23.0144 0)
(134.145 -19.3936 0)
(142.778 -15.742 0)
(151.762 -11.9215 0)
(156.159 -10.3488 0)
(156.225 -9.38323 0)
(154.081 -7.80989 0)
(150.663 -4.38791 0)
(147.891 0.547439 0)
(150.686 4.659 0)
(162.108 7.42789 0)
(182.873 9.10487 0)
(201.752 9.97474 0)
(209.297 10.3201 0)
(213.43 9.5042 0)
(214.397 8.00175 0)
(214.684 6.5909 0)
(217.451 6.31812 0)
(223.73 6.84882 0)
(235.252 7.97494 0)
(241.586 10.0333 0)
(242.432 11.6318 0)
(235.269 13.2822 0)
(206.946 14.086 0)
(169.412 13.5712 0)
(157.894 12.7516 0)
(153.907 12.9474 0)
(157.11 13.4305 0)
(166.246 14.1168 0)
(173.814 15.297 0)
(175.618 16.3077 0)
(176.875 16.7122 0)
(178.034 16.174 0)
(180.055 14.674 0)
(183.771 12.5509 0)
(190.084 10.3846 0)
(201.593 7.89741 0)
(216.387 5.42537 0)
(223.541 4.77223 0)
(227.225 4.99747 0)
(227.666 5.55752 0)
(225.931 6.46652 0)
(225.224 7.46012 0)
(226.763 8.65182 0)
(230.564 10.4203 0)
(234.456 11.6432 0)
(235.43 12.0353 0)
(230.704 11.5286 0)
(209.599 9.3751 0)
(177.496 4.53415 0)
(167.48 -0.975047 0)
(165.025 -4.45263 0)
(168.041 -6.42444 0)
(174.271 -7.56172 0)
(177.762 -7.05177 0)
(178.198 -6.88282 0)
(177.722 -7.00874 0)
(175.516 -6.63581 0)
(174.921 -5.87132 0)
(176.364 -4.87489 0)
(180.765 -3.2626 0)
(187.836 -1.54184 0)
(200.195 0.172724 0)
(214.731 2.36648 0)
(223.787 4.67193 0)
(227.235 6.08473 0)
(228.239 7.35985 0)
(229.565 9.43114 0)
(235.204 11.524 0)
(244.646 13.2234 0)
(250.685 15.2621 0)
(249.279 15.9165 0)
(244.308 14.7735 0)
(220.899 12.9941 0)
(179.544 12.4395 0)
(162.773 12.2774 0)
(163.351 12.4351 0)
(168.85 13.2465 0)
(176.538 13.7522 0)
(185.13 13.8558 0)
(188.845 13.9278 0)
(188.307 13.7458 0)
(187.251 13.6672 0)
(186.974 13.5913 0)
(187.473 13.7872 0)
(189.571 13.8168 0)
(194.489 11.8811 0)
(213.334 10.382 0)
(-2329.7 -2.17311 0)
(-916.305 7.49787 0)
(-94.9466 13.6685 0)
(-209.96 21.6475 0)
(-250.806 27.376 0)
(-246.63 32.784 0)
(-190.661 36.7354 0)
(-108.542 39.1891 0)
(-10.1143 38.7973 0)
(90.2103 34.5313 0)
(189.202 24.7891 0)
(283.712 8.67734 0)
(364.521 -9.09579 0)
(405.414 -24.2644 0)
(412.236 -32.0011 0)
(414.517 -31.9728 0)
(417.542 -22.917 0)
(416.911 -6.77739 0)
(394.728 0.881242 0)
(309.934 7.74765 0)
(14.5158 19.7968 0)
(-158.211 30.2129 0)
(-140.633 31.8252 0)
(-102.64 31.4651 0)
(-56.7818 24.777 0)
(-18.8875 16.8106 0)
(9.43749 8.9258 0)
(30.3456 0.581752 0)
(50.1376 -1.15681 0)
(72.812 -0.237989 0)
(101.291 0.656575 0)
(135.4 3.47499 0)
(174.404 3.53882 0)
(215.839 2.36422 0)
(256.549 3.70571 0)
(291.819 -1.3528 0)
(322.391 -10.3495 0)
(357.332 -20.895 0)
(389.85 -23.0586 0)
(398.614 -19.2468 0)
(403.332 -15.5971 0)
(345.388 -10.8116 0)
(117.139 1.11864 0)
(-18.7948 11.3489 0)
(-19.9274 14.5074 0)
(-2.46539 16.5893 0)
(25.802 15.5505 0)
(50.4874 11.3229 0)
(70.815 6.09447 0)
(89.6928 2.02092 0)
(106.22 0.477002 0)
(117.786 0.722131 0)
(124.752 1.57536 0)
(130.881 1.32652 0)
(141.413 -1.46455 0)
(158.584 -3.28788 0)
(179.717 -5.69943 0)
(200.876 -7.61566 0)
(218.294 -9.73807 0)
(231.966 -10.9818 0)
(251.188 -11.0071 0)
(287.986 -11.3427 0)
(325.487 -13.5783 0)
(338.459 -14.9335 0)
(326.595 -15.0135 0)
(226.47 -13.703 0)
(73.2981 -12.2322 0)
(46.5844 -14.4552 0)
(47.0263 -15.6878 0)
(59.5896 -15.1476 0)
(76.8459 -12.1132 0)
(89.6213 -6.76471 0)
(99.2432 -1.75848 0)
(108.829 0.95711 0)
(119.742 0.0933046 0)
(132.178 -0.95881 0)
(146.255 -2.59689 0)
(162.562 -3.9614 0)
(181.137 -5.96598 0)
(201.295 -8.10482 0)
(220.828 -10.755 0)
(239.185 -13.1009 0)
(256.764 -14.2727 0)
(271.877 -14.7004 0)
(291.514 -16.1357 0)
(313.201 -16.6992 0)
(318.576 -15.3899 0)
(312.583 -11.8078 0)
(261.96 -5.11401 0)
(141.303 3.48479 0)
(90.1787 6.32564 0)
(95.3494 5.30028 0)
(106.723 1.13901 0)
(123.704 -4.45981 0)
(137.62 -9.67665 0)
(145.813 -12.856 0)
(152.363 -12.5473 0)
(159.004 -9.59667 0)
(165.587 -5.65334 0)
(172.462 -2.86532 0)
(179.697 0.0076459 0)
(189.031 0.607058 0)
(200.842 1.48673 0)
(213.244 1.88782 0)
(223.745 0.888999 0)
(233.211 -1.49472 0)
(242.094 -4.12099 0)
(251.35 -6.06166 0)
(267.831 -5.96519 0)
(286.709 -2.92219 0)
(290.96 2.10675 0)
(284.061 6.57267 0)
(249.082 9.67712 0)
(158.689 11.2943 0)
(110.237 11.5822 0)
(110.961 12.5396 0)
(119.005 12.6174 0)
(129.195 9.10142 0)
(136.91 4.15252 0)
(136.961 -1.4616 0)
(136.558 -6.61131 0)
(142.094 -9.60291 0)
(152.226 -10.6287 0)
(165.055 -10.8249 0)
(178.542 -11.1345 0)
(191.418 -9.78816 0)
(203.399 -8.44706 0)
(213.108 -5.49347 0)
(221.475 -3.63626 0)
(229.51 -3.65848 0)
(239.376 -4.68729 0)
(251.663 -6.37332 0)
(267.047 -7.45357 0)
(275.47 -6.14751 0)
(271.744 -3.81839 0)
(257.553 0.0529921 0)
(224.068 4.26178 0)
(152.287 7.75151 0)
(114.857 7.71262 0)
(114.435 6.79664 0)
(124.629 5.72836 0)
(136.817 3.7983 0)
(148.852 0.628267 0)
(155.656 -1.5473 0)
(155.926 -4.11177 0)
(157.802 -5.42458 0)
(163.722 -4.31567 0)
(174.239 -3.39993 0)
(188.492 -3.17904 0)
(203.532 -1.89415 0)
(215.497 -0.674095 0)
(220.426 0.60558 0)
(219.749 -0.152736 0)
(219.683 -2.27162 0)
(222.988 -4.91974 0)
(231.493 -8.11044 0)
(247.898 -10.5845 0)
(266.973 -11.5119 0)
(271.238 -8.85401 0)
(263.615 -4.10181 0)
(236.066 3.69434 0)
(171.712 12.2513 0)
(128.324 19.9634 0)
(125.943 23.589 0)
(134.879 27.3099 0)
(150.992 30.1848 0)
(166.951 30.459 0)
(174.453 27.7243 0)
(175.594 22.9693 0)
(175.004 16.9006 0)
(176.813 10.0212 0)
(181.306 2.76769 0)
(189.249 -4.28343 0)
(201.312 -8.99062 0)
(212.641 -10.5705 0)
(217.638 -8.66952 0)
(217.622 -5.14767 0)
(215.688 -0.0407041 0)
(214.187 5.08052 0)
(217.772 9.09348 0)
(226.792 12.5492 0)
(243.084 16.1855 0)
(256.981 19.1379 0)
(259.262 21.6214 0)
(251.421 23.596 0)
(222.296 23.7203 0)
(165.071 18.5021 0)
(138.576 13.1619 0)
(138.172 8.94919 0)
(142.254 3.4199 0)
(151.728 -2.50478 0)
(162.054 -8.41218 0)
(165.691 -12.6261 0)
(164.844 -13.6294 0)
(163.501 -12.9612 0)
(163.546 -11.186 0)
(168.342 -9.26942 0)
(180.728 -6.96287 0)
(201.781 -4.12146 0)
(222.929 -0.555988 0)
(233.48 2.51214 0)
(236.906 4.86637 0)
(238.453 5.2022 0)
(238.306 3.01898 0)
(241.654 -1.2923 0)
(250.393 -9.3039 0)
(260.794 -20.7051 0)
(262.958 -31.4956 0)
(258.455 -39.9641 0)
(237.742 -45.2671 0)
(186.325 -44.4554 0)
(144.358 -37.7887 0)
(138.242 -31.9733 0)
(140.279 -28.3808 0)
(147.616 -24.345 0)
(155.585 -20.2701 0)
(158.872 -17.5507 0)
(158.734 -15.4323 0)
(157.512 -12.4945 0)
(156.578 -8.07631 0)
(154.742 -2.09146 0)
(157.505 3.78498 0)
(167.28 8.23123 0)
(185.325 11.3101 0)
(203.132 13.2381 0)
(208.669 14.0515 0)
(211.441 13.8755 0)
(212.715 12.5493 0)
(214.287 11.0736 0)
(218.236 10.2779 0)
(226.072 10.5504 0)
(239.572 12.6542 0)
(246.376 15.7717 0)
(246.585 18.1671 0)
(238.601 20.6271 0)
(208.675 21.86 0)
(169.346 20.9162 0)
(157.711 19.4588 0)
(154.952 18.9958 0)
(159.364 18.9798 0)
(169.171 19.7804 0)
(175.144 21.2312 0)
(176.753 21.6754 0)
(176.714 21.8702 0)
(176.077 20.7143 0)
(176.483 17.9103 0)
(179.624 14.6617 0)
(185.607 11.8432 0)
(197.507 9.592 0)
(214.508 8.06425 0)
(224.931 7.61032 0)
(228.565 7.98337 0)
(229.082 8.37621 0)
(228.403 9.43807 0)
(228.6 10.2168 0)
(230.725 11.8381 0)
(233.81 13.986 0)
(236.087 15.3274 0)
(235.753 15.8407 0)
(228.108 15.274 0)
(202.463 12.7506 0)
(169.67 7.06308 0)
(160.628 0.688653 0)
(160.537 -3.85978 0)
(165.295 -6.86775 0)
(174.106 -8.68092 0)
(179.176 -8.87608 0)
(179.659 -8.23818 0)
(179.183 -7.64021 0)
(177.904 -6.51637 0)
(178.174 -5.44671 0)
(180.118 -4.80637 0)
(184.438 -3.01102 0)
(191.084 -0.735088 0)
(203.239 1.56931 0)
(218.097 4.33028 0)
(226.646 7.37021 0)
(229.223 9.28894 0)
(230.244 11.1627 0)
(232.306 13.6836 0)
(237.603 15.9691 0)
(245.837 18.127 0)
(249.844 20.8148 0)
(249.263 22.2437 0)
(242.781 21.6984 0)
(218.85 19.8532 0)
(179.916 18.4735 0)
(165.043 18.7912 0)
(165.302 18.9237 0)
(169.714 20.0235 0)
(177.585 20.0594 0)
(186.118 20.5593 0)
(188.777 20.124 0)
(188.023 19.8819 0)
(186.496 19.7159 0)
(185.332 19.0123 0)
(185.89 19.0829 0)
(187.679 18.6858 0)
(191.456 15.7933 0)
(207.796 13.8651 0)
(-2328.39 -2.07791 0)
(-920.558 -8.90535 0)
(-89.3556 5.50833 0)
(-203.363 14.0603 0)
(-238.958 22.4047 0)
(-230.559 30.6251 0)
(-179.519 37.8213 0)
(-104.041 41.7821 0)
(-13.7433 40.0687 0)
(78.4645 34.0064 0)
(168.132 18.4212 0)
(256.713 2.48594 0)
(338.951 -13.3751 0)
(387.423 -27.0489 0)
(398.825 -33.1624 0)
(408.391 -30.5384 0)
(420.216 -23.2239 0)
(424.926 -10.7051 0)
(408.4 -1.08628 0)
(325.603 9.37016 0)
(33.7274 24.1515 0)
(-152.343 38.0264 0)
(-141.51 38.7165 0)
(-105.598 37.5051 0)
(-62.5172 28.8413 0)
(-27.3127 19.0412 0)
(0.894298 11.189 0)
(25.6067 3.51635 0)
(51.7443 2.52472 0)
(80.0737 4.53033 0)
(110.744 6.103 0)
(143.513 7.13125 0)
(178.426 5.91013 0)
(214.322 5.02113 0)
(249.432 4.73989 0)
(280.922 -1.35759 0)
(310.148 -10.2708 0)
(346.863 -20.7316 0)
(385.249 -23.0486 0)
(397.661 -19.4885 0)
(405.065 -16.227 0)
(356.918 -11.8376 0)
(141.105 1.79895 0)
(-11.511 15.1327 0)
(-18.0817 19.4562 0)
(-4.53942 21.4887 0)
(21.5033 20.1249 0)
(45.5685 15.0196 0)
(66.1887 8.82318 0)
(86.3126 3.97659 0)
(105.114 1.90801 0)
(119.456 1.70508 0)
(127.998 2.13737 0)
(133.68 1.685 0)
(142.266 -0.72865 0)
(157.889 -2.41925 0)
(178.883 -4.08018 0)
(201.088 -6.40489 0)
(220.885 -9.03728 0)
(236.614 -11.1371 0)
(255.085 -12.1006 0)
(289.353 -12.9214 0)
(329.321 -15.1131 0)
(339.503 -17.5903 0)
(330.56 -17.9147 0)
(235.352 -15.9574 0)
(76.9603 -12.391 0)
(45.3996 -13.3193 0)
(48.2929 -14.4976 0)
(63.2906 -14.5505 0)
(83.47 -12.1719 0)
(98.5407 -7.97968 0)
(108.377 -2.83319 0)
(115.656 1.40359 0)
(122.893 2.61634 0)
(131.625 1.83431 0)
(143.157 -0.817813 0)
(158.983 -2.12632 0)
(178.58 -4.78566 0)
(200.002 -8.57221 0)
(219.521 -12.2025 0)
(237.538 -15.523 0)
(254.265 -18.042 0)
(269.046 -18.4182 0)
(288.235 -19.1646 0)
(312.324 -19.2446 0)
(323.241 -17.6851 0)
(315.711 -15.3829 0)
(272.304 -9.82877 0)
(149.181 0.072571 0)
(86.0515 3.45815 0)
(88.3584 1.58302 0)
(96.7512 -3.32949 0)
(113.073 -8.62553 0)
(128.379 -12.9974 0)
(139.634 -14.3387 0)
(149.427 -13.2204 0)
(159.097 -10.5054 0)
(167.435 -7.5628 0)
(173.946 -5.32055 0)
(179.012 -2.1483 0)
(185.941 -0.558862 0)
(195.925 1.85618 0)
(207.809 3.14671 0)
(219.015 2.21886 0)
(228.779 -0.547616 0)
(237.483 -3.17868 0)
(248.174 -4.46713 0)
(268.355 -3.5443 0)
(291.208 -0.053805 0)
(295.456 5.30509 0)
(290.41 9.29068 0)
(253.231 12.4071 0)
(158.58 14.5322 0)
(110.356 15.6656 0)
(110.949 16.6486 0)
(115.531 16.5166 0)
(123.28 12.6555 0)
(129.51 6.98405 0)
(128.935 1.49521 0)
(131.851 -3.29123 0)
(140.041 -5.16503 0)
(152.341 -6.41921 0)
(166.865 -6.49203 0)
(181.878 -6.47819 0)
(196.125 -5.39545 0)
(207.849 -4.91898 0)
(215.949 -3.08398 0)
(223.126 -2.9105 0)
(230.122 -4.01078 0)
(239.273 -5.53865 0)
(250.905 -7.84292 0)
(266.882 -10.0239 0)
(278.917 -10.9011 0)
(278.456 -8.7404 0)
(266.078 -5.20796 0)
(235.395 0.545491 0)
(161.029 7.00932 0)
(116.612 8.7431 0)
(114.831 7.65144 0)
(122.287 6.16599 0)
(133.203 3.71985 0)
(145.319 0.166462 0)
(152.839 -2.46856 0)
(154.825 -4.74305 0)
(158.861 -4.83118 0)
(165.92 -3.23672 0)
(176.631 -1.8847 0)
(190.302 -1.11031 0)
(204.811 0.575105 0)
(216.492 1.80676 0)
(220.283 2.76678 0)
(217.588 2.01037 0)
(216.13 -0.0741934 0)
(218.61 -2.37968 0)
(227.373 -4.49195 0)
(244.387 -6.52019 0)
(265.97 -7.19503 0)
(273.778 -4.29448 0)
(270.724 0.443356 0)
(247.546 7.16568 0)
(184.154 16.2331 0)
(135.867 24.1116 0)
(131.573 27.9592 0)
(138.052 31.2905 0)
(150.632 33.8127 0)
(163.783 33.7018 0)
(168.742 30.2313 0)
(167.642 25.374 0)
(164.072 19.1086 0)
(163.705 11.5335 0)
(168.723 5.50401 0)
(179.854 0.322051 0)
(197.05 -4.48964 0)
(214.027 -6.42995 0)
(223.682 -6.38008 0)
(225.161 -3.67168 0)
(223.814 0.85284 0)
(220.68 5.46634 0)
(223.927 9.79373 0)
(233.587 13.255 0)
(249.238 17.1803 0)
(260.514 20.3918 0)
(262.905 23.2733 0)
(253.744 25.1207 0)
(218.238 24.8437 0)
(158.234 20.2039 0)
(131.92 15.2594 0)
(128.77 9.10437 0)
(132.976 3.29072 0)
(143.693 -2.95594 0)
(156.072 -8.4675 0)
(161.827 -11.7627 0)
(164.145 -12.4642 0)
(165.315 -11.5197 0)
(166.98 -9.75391 0)
(172.788 -7.43397 0)
(185.679 -5.0494 0)
(206.694 -2.05359 0)
(227.518 1.17019 0)
(237.187 4.10917 0)
(238.932 5.80095 0)
(237.448 5.44141 0)
(233.52 2.87391 0)
(232.661 -3.18478 0)
(237.171 -12.2089 0)
(246.379 -23.7392 0)
(248.842 -34.5687 0)
(246.951 -42.2076 0)
(233.489 -46.4161 0)
(194.077 -46.3935 0)
(153.297 -41.2312 0)
(145.794 -36.4621 0)
(145.699 -32.8268 0)
(151.768 -29.8814 0)
(160.13 -26.6022 0)
(162.594 -23.6031 0)
(163.196 -20.9168 0)
(162.308 -17.7146 0)
(161.782 -13.4415 0)
(163.215 -7.67269 0)
(165.888 -1.00159 0)
(174.22 4.92832 0)
(189.828 9.66733 0)
(205.515 13.0928 0)
(210.401 15.3163 0)
(210.73 16.1904 0)
(211.756 16.244 0)
(213.856 15.595 0)
(218.03 15.0841 0)
(227.633 15.6139 0)
(243.097 18.1251 0)
(250.099 21.6166 0)
(249.719 23.836 0)
(241.044 25.7234 0)
(208.776 25.7948 0)
(167.012 23.757 0)
(155.845 21.7498 0)
(154.514 21.3878 0)
(160.193 21.3004 0)
(170.781 21.9255 0)
(175.367 22.4696 0)
(176.608 22.2476 0)
(175.338 21.7249 0)
(173.007 19.9311 0)
(172.564 17.0767 0)
(175.07 14.3734 0)
(181.379 11.6471 0)
(194.544 9.77049 0)
(213.505 9.29098 0)
(226.238 9.6434 0)
(229.873 10.7344 0)
(230.308 11.3654 0)
(230.558 11.8751 0)
(231.682 13.4898 0)
(234.817 14.4056 0)
(237.215 15.8937 0)
(238.3 16.9977 0)
(236.749 17.2474 0)
(225.984 16.8421 0)
(195.793 14.4691 0)
(162.018 9.23233 0)
(153.757 3.15488 0)
(155.688 -0.543312 0)
(161.673 -3.90201 0)
(171.88 -6.37281 0)
(180.459 -7.54978 0)
(182.243 -6.71637 0)
(181.464 -6.0989 0)
(180.576 -5.52964 0)
(181.24 -4.13239 0)
(183.771 -2.99032 0)
(187.46 -1.39563 0)
(194.144 0.813846 0)
(206.567 4.08 0)
(221.542 7.60557 0)
(229.428 10.5298 0)
(230.801 13.0206 0)
(232.221 14.9335 0)
(234.861 16.7293 0)
(240.081 18.7715 0)
(246.599 20.8573 0)
(250.431 22.6105 0)
(249.34 23.0095 0)
(241.078 22.4372 0)
(216.956 21.7244 0)
(180.201 22.7038 0)
(166.25 24.6219 0)
(165.661 24.6527 0)
(168.781 24.7412 0)
(177.555 24.6974 0)
(185.465 24.17 0)
(187.012 22.7971 0)
(186.558 22.0873 0)
(184.938 21.9713 0)
(182.939 21.721 0)
(182.835 20.879 0)
(184.61 20.0258 0)
(188.464 15.945 0)
(202.625 13.8519 0)
(-2326.28 -1.69741 0)
(-783.45 -22.2352 0)
(-78.978 -0.944102 0)
(-190.861 8.03987 0)
(-221.105 18.3039 0)
(-209.67 25.314 0)
(-166.734 31.5975 0)
(-100.777 35.033 0)
(-19.4164 31.0651 0)
(64.8449 20.8991 0)
(148.143 8.3621 0)
(235.172 -3.85941 0)
(320.582 -15.2306 0)
(371.873 -24.7231 0)
(389.484 -28.301 0)
(404.079 -24.1053 0)
(419.773 -19.1906 0)
(429.632 -11.2292 0)
(421.171 -3.43075 0)
(343.6 7.85491 0)
(53.6198 23.3389 0)
(-141.709 38.5544 0)
(-143.701 40.0593 0)
(-111.102 38.5788 0)
(-70.7503 28.2648 0)
(-36.6003 17.2969 0)
(-6.40772 11.4351 0)
(22.6423 6.85196 0)
(53.9498 7.42374 0)
(86.8358 10.5448 0)
(119.051 12.8206 0)
(150.154 11.6211 0)
(180.939 8.90375 0)
(211.645 7.77356 0)
(242.232 6.29324 0)
(271.19 1.13242 0)
(299.884 -6.76874 0)
(337.408 -14.7796 0)
(380.844 -17.0679 0)
(397.576 -14.9008 0)
(406.167 -12.3317 0)
(367.432 -8.82806 0)
(167.245 3.75379 0)
(-3.572 18.0721 0)
(-16.1833 22.5899 0)
(-6.6608 24.0035 0)
(16.2499 22.5325 0)
(39.5642 17.0296 0)
(60.9293 10.9656 0)
(82.6032 6.48204 0)
(103.709 4.3518 0)
(120.618 3.00312 0)
(131.17 2.54617 0)
(137.458 2.42077 0)
(144.92 1.37269 0)
(158.598 0.84104 0)
(178.762 -1.20567 0)
(201.58 -3.02676 0)
(223.089 -5.96775 0)
(240.782 -8.74794 0)
(259.328 -10.1632 0)
(292.414 -11.171 0)
(333.741 -12.1461 0)
(342.067 -15.3551 0)
(335.266 -16.4001 0)
(247.34 -14.3867 0)
(84.7653 -9.48324 0)
(46.3506 -9.12857 0)
(50.7325 -9.74667 0)
(66.4692 -10.4849 0)
(88.7091 -9.95012 0)
(106.524 -7.6561 0)
(118.383 -3.31489 0)
(125.211 0.598801 0)
(128.97 3.10697 0)
(132.924 4.3846 0)
(140.638 1.99377 0)
(154.662 -0.219802 0)
(174.625 -3.55098 0)
(196.449 -7.56484 0)
(217.429 -10.7425 0)
(235.445 -13.9312 0)
(251.32 -16.6282 0)
(266.041 -17.4836 0)
(284.612 -18.9605 0)
(310.397 -20.2064 0)
(325.154 -19.3924 0)
(315.838 -18.6639 0)
(278.805 -15.8524 0)
(157.99 -6.84044 0)
(82.031 -3.35885 0)
(80.6795 -5.00558 0)
(87.4602 -8.56148 0)
(103.859 -12.5599 0)
(121.111 -15.4458 0)
(134.215 -15.0951 0)
(145.941 -13.5395 0)
(157.925 -11.2862 0)
(167.559 -8.91425 0)
(174.368 -6.86789 0)
(178.64 -3.72334 0)
(183.783 -1.12714 0)
(191.832 2.45321 0)
(202.545 4.51833 0)
(213.434 3.55023 0)
(223.402 1.76864 0)
(232.952 0.2966 0)
(245.526 0.199243 0)
(268.693 1.83811 0)
(294.568 4.90332 0)
(300.064 7.92388 0)
(296.584 11.0908 0)
(257.458 13.6912 0)
(159.266 16.0077 0)
(110.816 18.1209 0)
(111.015 18.9392 0)
(112.205 19.2691 0)
(117.432 16.36 0)
(122.155 11.4225 0)
(122.875 7.12993 0)
(128.972 4.15673 0)
(139.483 2.76024 0)
(154.154 2.08421 0)
(170.616 2.47676 0)
(187.187 2.22161 0)
(201.9 3.36259 0)
(211.925 3.34934 0)
(217.609 3.58427 0)
(222.946 1.43372 0)
(229.682 -0.871817 0)
(238.323 -4.59477 0)
(249.618 -8.38828 0)
(265.393 -11.4855 0)
(281.548 -14.0652 0)
(285.216 -12.7994 0)
(274.98 -10.7378 0)
(248.733 -5.05049 0)
(174.746 3.00112 0)
(119.426 7.76596 0)
(115.176 6.46253 0)
(119.855 5.12248 0)
(129.246 2.76177 0)
(141.834 -0.0526746 0)
(150.328 -2.45656 0)
(155.269 -3.65475 0)
(160.737 -2.61221 0)
(168.386 -0.476553 0)
(179.416 1.32264 0)
(192.359 2.59639 0)
(205.999 4.67418 0)
(217.146 5.8766 0)
(219.987 6.50243 0)
(216.246 5.33465 0)
(213.66 4.14145 0)
(215.618 3.00856 0)
(224.926 2.84693 0)
(242.929 2.95272 0)
(266.15 2.57477 0)
(277.208 3.57064 0)
(276.688 6.06249 0)
(256.314 10.7341 0)
(193.801 17.3593 0)
(141.266 23.5753 0)
(135.801 26.9189 0)
(140.566 28.8778 0)
(151.02 30.0754 0)
(161.338 28.8936 0)
(163.848 25.4918 0)
(160.815 22.4813 0)
(155.891 18.9284 0)
(154.39 14.0125 0)
(158.964 9.65237 0)
(171.38 5.87542 0)
(192.354 3.0188 0)
(213.416 0.552056 0)
(226.271 -0.415755 0)
(229.991 0.839311 0)
(228.993 3.07711 0)
(225.755 5.12026 0)
(228.347 7.53662 0)
(239.088 9.4253 0)
(254.14 12.401 0)
(265.347 15.4951 0)
(267.961 19.0187 0)
(256.492 22.4766 0)
(214.396 23.2621 0)
(151.727 19.1335 0)
(125.168 14.3026 0)
(119.314 8.59796 0)
(124.122 4.14232 0)
(136.9 -0.971964 0)
(151.843 -5.18752 0)
(160.301 -7.45659 0)
(164.667 -7.66385 0)
(167.381 -6.20233 0)
(170.732 -4.52396 0)
(178.077 -2.45529 0)
(191.009 -0.00458063 0)
(210.93 2.38525 0)
(231.099 3.88516 0)
(239.514 5.47445 0)
(239.059 5.27564 0)
(234.74 3.31639 0)
(227.646 -0.0949259 0)
(222.821 -6.35903 0)
(224.421 -13.9752 0)
(233.357 -21.8908 0)
(237.185 -29.9821 0)
(238.64 -35.6667 0)
(229.951 -39.4617 0)
(198.141 -40.5729 0)
(160.11 -38.2006 0)
(151.554 -35.65 0)
(149.71 -33.3953 0)
(154.303 -31.5876 0)
(162.845 -29.7832 0)
(166.159 -27.1982 0)
(167.824 -24.0029 0)
(167.775 -20.1201 0)
(168.107 -16.1973 0)
(170.483 -12.5802 0)
(173.886 -6.88149 0)
(181.522 -0.958547 0)
(195.318 4.29021 0)
(209.584 8.71061 0)
(213.973 12.9282 0)
(212.485 15.6316 0)
(211.909 18.1237 0)