/*--------------------------------*- C++ -*----------------------------------*\
| =========                 |                                                 |
| \\      /  F ield         | OpenFOAM: The Open Source CFD Toolbox           |
|  \\    /   O peration     | Version:  2306                                  |
|   \\  /    A nd           | Website:  www.openfoam.com                      |
|    \\/     M anipulation  |                                                 |
\*---------------------------------------------------------------------------*/
FoamFile
{
    version     2.0;
    format      ascii;
    arch        "LSB;label=32;scalar=64";
    class       volScalarField;
    location    "0.08";
    object      rho;
}
// * * * * * * * * * * * * * * * * * * * * * * * * * * * * * * * * * * * * * //

dimensions      [1 -3 0 0 0 0 0];

internalField   nonuniform List<scalar> 
6000
(
22.0983
0.16725
0.133507
0.147
0.15785
0.183303
0.21325
0.237304
0.243534
0.242581
0.240353
0.23734
0.231567
0.213419
0.165462
0.139284
0.13841
0.14135
0.147145
0.153304
0.159059
0.164592
0.170131
0.175813
0.181752
0.188158
0.195456
0.204057
0.211162
0.2127
0.211018
0.200117
0.165295
0.142008
0.140698
0.14227
0.146273
0.150283
0.15331
0.155771
0.158142
0.160631
0.163238
0.165847
0.168373
0.170985
0.174396
0.180181
0.18792
0.190467
0.188912
0.177777
0.151978
0.141479
0.141155
0.142577
0.145674
0.14848
0.15027
0.151561
0.152832
0.154278
0.155835
0.157277
0.158474
0.159604
0.161234
0.164521
0.168877
0.170018
0.168666
0.161643
0.144826
0.135132
0.134295
0.134658
0.136425
0.138614
0.140031
0.14077
0.141328
0.142021
0.142982
0.144136
0.14529
0.146393
0.147707
0.149838
0.153663
0.158248
0.160242
0.160734
0.156591
0.145092
0.13936
0.140094
0.142305
0.146139
0.150334
0.153749
0.156391
0.158826
0.161494
0.164587
0.167947
0.171249
0.174499
0.178403
0.184
0.190598
0.193124
0.192202
0.182714
0.172421
0.171497
0.173616
0.178281
0.18444
0.190094
0.194677
0.198982
0.203772
0.209404
0.215881
0.223346
0.232703
0.244356
0.25367
0.259131
0.256302
0.248697
0.249516
0.257848
0.271533
0.288214
0.303805
0.317093
0.329841
0.344415
0.363989
0.390703
0.416194
0.431717
0.438372
0.439985
0.466519
0.516093
0.59387
0.699628
0.840064
1.02032
1.16199
1.24994
1.2979
1.3615
1.46079
1.56611
1.59585
1.59024
1.56362
1.56597
1.58745
1.62731
1.64314
1.64262
1.63112
1.62754
1.63215
1.64244
1.64664
1.64558
1.64017
1.63772
1.63902
1.64294
1.64552
1.6458
1.64419
1.64232
1.64284
1.64485
1.64841
1.65046
1.65083
1.65056
1.65013
1.65029
1.65067
1.651
1.65114
1.65095
1.65043
1.64995
1.64974
1.64969
1.64969
1.64984
1.6501
1.65055
1.65123
1.65174
1.65194
1.65196
1.65174
1.65145
1.65134
1.65143
1.65161
1.65177
1.65187
1.6519
1.65188
1.6518
1.65169
1.65161
1.65167
1.65183
1.65205
1.65238
1.65273
1.653
1.65314
1.65324
1.65331
1.65335
1.65336
1.65332
1.6532
1.65292
1.65235
1.65138
1.64995
1.64838
1.64742
1.64728
1.64757
1.64822
1.64913
1.6501
1.65118
1.65247
1.65402
1.65571
1.65705
1.65766
1.65783
1.65792
1.65763
1.65668
1.65486
1.65232
1.65003
1.64892
1.64834
1.64791
1.64776
1.64809
1.6489
1.65005
1.65093
1.65112
1.65094
1.65051
1.64993
1.6494
1.64911
1.64904
1.64908
1.64908
1.64885
1.64839
1.64777
1.64657
1.64542
1.64451
1.64411
1.64443
1.64542
1.64699
1.64894
1.65093
1.65251
1.65344
1.65371
1.65363
1.65355
1.65323
1.65242
1.65103
1.64965
1.64917
1.64937
1.64984
1.65064
1.65199
1.65399
1.65649
1.65916
1.66159
1.66358
22.101
0.161908
0.13373
0.14691
0.157669
0.183063
0.21314
0.237255
0.243463
0.242529
0.240315
0.237344
0.231636
0.213561
0.165591
0.139286
0.138421
0.141364
0.147165
0.15333
0.159088
0.164621
0.170161
0.175858
0.181852
0.188355
0.195742
0.204358
0.211469
0.213013
0.21131
0.200443
0.165476
0.142107
0.140794
0.142377
0.146387
0.150398
0.153427
0.155894
0.158273
0.160773
0.163394
0.166017
0.168554
0.171167
0.174559
0.180308
0.187955
0.190386
0.188733
0.177418
0.151622
0.141249
0.140929
0.142349
0.145435
0.148222
0.149994
0.151269
0.152524
0.153948
0.155476
0.156899
0.1581
0.159261
0.160973
0.164444
0.169084
0.170424
0.169105
0.162119
0.1452
0.135336
0.134469
0.134816
0.136567
0.138734
0.140116
0.140818
0.141342
0.14199
0.142886
0.143976
0.145105
0.146212
0.147532
0.149657
0.153501
0.158159
0.160239
0.160794
0.156746
0.145365
0.139655
0.140394
0.142594
0.146415
0.150586
0.153977
0.1566
0.159004
0.161624
0.164645
0.167915
0.171125
0.174314
0.178185
0.183746
0.190383
0.192966
0.192124
0.182737
0.17256
0.171736
0.1739
0.178582
0.184704
0.1903
0.1948
0.198997
0.203662
0.209175
0.215566
0.222963
0.232311
0.244123
0.253726
0.259232
0.256508
0.248846
0.249488
0.257727
0.271327
0.287951
0.303442
0.316644
0.329361
0.343908
0.363402
0.390139
0.41616
0.432045
0.439237
0.441074
0.467774
0.517405
0.595081
0.700119
0.839228
1.01714
1.15667
1.24336
1.29091
1.35446
1.45374
1.56321
1.59576
1.59053
1.56155
1.56237
1.58339
1.62496
1.64425
1.64459
1.63259
1.62671
1.63069
1.6409
1.64637
1.64598
1.64134
1.63814
1.63908
1.64244
1.64525
1.6457
1.64449
1.64274
1.64316
1.64494
1.64824
1.65032
1.65072
1.65052
1.65011
1.65026
1.65064
1.65099
1.65116
1.65101
1.65054
1.65009
1.64989
1.64983
1.64986
1.65003
1.65029
1.65075
1.65142
1.65191
1.65211
1.65214
1.65192
1.65161
1.65146
1.6515
1.65165
1.65179
1.6519
1.65195
1.65196
1.65191
1.65182
1.65174
1.65176
1.6519
1.65209
1.65236
1.65267
1.65294
1.65311
1.65322
1.65328
1.65331
1.65331
1.65328
1.65316
1.65288
1.65231
1.65133
1.64989
1.64828
1.64727
1.6471
1.64737
1.64801
1.64894
1.64993
1.65104
1.65235
1.65393
1.65562
1.65694
1.65751
1.65765
1.65772
1.65742
1.65648
1.65471
1.65223
1.65
1.64894
1.64839
1.64799
1.64788
1.64823
1.64904
1.65016
1.65103
1.65123
1.65109
1.65077
1.65032
1.6499
1.64967
1.64958
1.64949
1.64938
1.64911
1.64858
1.64792
1.64682
1.64578
1.64499
1.64465
1.64498
1.64592
1.6474
1.64922
1.65109
1.65258
1.6534
1.6536
1.65351
1.65341
1.65307
1.65222
1.6508
1.6494
1.64893
1.64911
1.64954
1.65028
1.6515
1.65332
1.65566
1.65828
1.66075
1.66274
22.1076
0.157232
0.134443
0.146591
0.157529
0.183257
0.213289
0.237242
0.243405
0.242477
0.240319
0.237403
0.231758
0.21378
0.165844
0.139366
0.138497
0.141421
0.147213
0.153379
0.159139
0.164663
0.17019
0.175885
0.181902
0.188445
0.195881
0.204591
0.211872
0.213547
0.211868
0.200907
0.165671
0.14226
0.140946
0.142547
0.146571
0.150588
0.153622
0.156097
0.158487
0.160998
0.163634
0.166276
0.168828
0.171453
0.174862
0.18064
0.188146
0.190348
0.188587
0.177029
0.151193
0.141038
0.140716
0.142125
0.145173
0.147919
0.149655
0.15089
0.152093
0.153462
0.154954
0.156376
0.157618
0.158865
0.160705
0.164335
0.169235
0.170811
0.169604
0.162772
0.145751
0.135644
0.134755
0.1351
0.136839
0.138964
0.140288
0.140933
0.141396
0.141975
0.142802
0.143827
0.144893
0.145953
0.147249
0.149381
0.153281
0.158043
0.160189
0.160785
0.156883
0.145679
0.139962
0.140718
0.142958
0.146824
0.151024
0.154407
0.156989
0.159339
0.161895
0.164839
0.168013
0.17112
0.174216
0.178003
0.183511
0.190235
0.19289
0.192161
0.182996
0.172935
0.172146
0.174355
0.17912
0.185284
0.1908
0.195131
0.199147
0.203604
0.208868
0.214968
0.222101
0.231315
0.243212
0.253144
0.258744
0.256191
0.248423
0.248785
0.256877
0.270307
0.286786
0.302202
0.315428
0.328238
0.3429
0.36253
0.389517
0.416542
0.433243
0.441729
0.444116
0.47104
0.520681
0.59762
0.700648
0.835284
1.00475
1.13701
1.2195
1.26419
1.32675
1.4256
1.54517
1.58964
1.59101
1.56214
1.5582
1.57739
1.62038
1.64461
1.64696
1.63568
1.62628
1.62885
1.63795
1.64552
1.64616
1.64319
1.63923
1.63955
1.64175
1.6446
1.6453
1.64475
1.64345
1.64378
1.64521
1.64806
1.65011
1.65055
1.65044
1.65008
1.65022
1.65059
1.65097
1.65116
1.65107
1.65067
1.65024
1.65005
1.65001
1.65007
1.65028
1.65057
1.65106
1.65171
1.65215
1.65234
1.65237
1.65218
1.65188
1.65169
1.65166
1.65173
1.65184
1.65194
1.65201
1.65204
1.65204
1.652
1.65195
1.65193
1.65201
1.65216
1.65235
1.65259
1.65284
1.65304
1.65316
1.65322
1.65325
1.65324
1.6532
1.65308
1.6528
1.65224
1.65127
1.64983
1.64819
1.6471
1.64687
1.64712
1.64774
1.64867
1.64968
1.65082
1.65219
1.65381
1.65552
1.65679
1.65729
1.65739
1.65741
1.65708
1.65613
1.65442
1.65207
1.64997
1.649
1.64851
1.64816
1.6481
1.64846
1.64924
1.65027
1.65112
1.65136
1.65132
1.65114
1.65085
1.65054
1.65032
1.65011
1.64989
1.64965
1.64932
1.64878
1.64814
1.64724
1.64637
1.64574
1.64549
1.64585
1.64673
1.64807
1.6497
1.65137
1.65272
1.65337
1.65348
1.65339
1.65326
1.65286
1.65197
1.65055
1.64915
1.6486
1.64872
1.64907
1.6497
1.65078
1.65244
1.65465
1.65717
1.65966
1.6617
22.0627
0.206367
0.132621
0.145656
0.157675
0.183556
0.213507
0.23729
0.243371
0.242451
0.240323
0.237425
0.231792
0.213928
0.166183
0.139505
0.138616
0.141503
0.147277
0.153446
0.159211
0.164731
0.170248
0.175936
0.181968
0.188575
0.196109
0.204911
0.212407
0.214245
0.212558
0.201471
0.165888
0.142458
0.141147
0.142776
0.146823
0.15085
0.153887
0.156368
0.158765
0.161289
0.163942
0.166603
0.169168
0.171797
0.175214
0.180989
0.188312
0.190316
0.188457
0.176609
0.150712
0.14078
0.140455
0.141851
0.144859
0.147553
0.149239
0.150433
0.151606
0.152963
0.154474
0.155952
0.157282
0.158632
0.160584
0.164317
0.169431
0.171232
0.170121
0.163447
0.146376
0.136028
0.135119
0.135463
0.137192
0.139247
0.140462
0.141021
0.141423
0.141954
0.142721
0.143674
0.14467
0.145683
0.146962
0.149099
0.153044
0.157917
0.160148
0.160791
0.157024
0.145968
0.140247
0.141027
0.143324
0.147279
0.15154
0.154926
0.15747
0.159766
0.162256
0.165116
0.168184
0.171173
0.174177
0.177907
0.183438
0.190354
0.19314
0.19253
0.183552
0.173578
0.172811
0.175062
0.179905
0.186089
0.191478
0.195588
0.199353
0.20355
0.208476
0.214187
0.220984
0.229991
0.241894
0.252025
0.257619
0.255212
0.247251
0.247129
0.254916
0.268014
0.284271
0.299649
0.312991
0.326097
0.341209
0.36131
0.388914
0.417659
0.435752
0.446197
0.449267
0.476285
0.525281
0.60019
0.698352
0.822323
0.974577
1.09374
1.16954
1.21091
1.27255
1.3687
1.50084
1.56927
1.58605
1.56493
1.55654
1.57292
1.61437
1.64385
1.64797
1.63831
1.6259
1.62719
1.63486
1.64463
1.64653
1.64498
1.64066
1.63989
1.64115
1.64385
1.64502
1.64508
1.64433
1.64454
1.6456
1.64788
1.64991
1.65041
1.65039
1.65008
1.6502
1.65055
1.65095
1.65117
1.65115
1.65082
1.65042
1.65024
1.65026
1.65044
1.65069
1.65104
1.65155
1.65214
1.6525
1.65267
1.65269
1.65251
1.65221
1.65197
1.65188
1.65188
1.65194
1.65202
1.65211
1.65218
1.65222
1.65221
1.65215
1.6521
1.65212
1.65221
1.65233
1.6525
1.6527
1.65289
1.65304
1.65311
1.65313
1.65313
1.65309
1.65298
1.6527
1.65214
1.65117
1.64973
1.64806
1.6469
1.64659
1.64679
1.64738
1.64829
1.6493
1.65047
1.65189
1.65358
1.65531
1.65653
1.65696
1.65701
1.65699
1.65663
1.65571
1.65408
1.65186
1.64993
1.64908
1.64866
1.64838
1.64837
1.64874
1.64948
1.65042
1.65122
1.65149
1.65159
1.65159
1.6515
1.65133
1.65112
1.65085
1.65049
1.65011
1.64971
1.64921
1.64864
1.64795
1.64729
1.64682
1.64665
1.647
1.64778
1.64893
1.65033
1.65175
1.65285
1.65329
1.65328
1.65319
1.65301
1.65255
1.65163
1.65026
1.64895
1.64833
1.64836
1.6486
1.64908
1.64996
1.65137
1.6533
1.65555
1.65782
1.65977
22.1389
0.133726
0.13257
0.145753
0.157525
0.183487
0.213501
0.237311
0.243471
0.242575
0.240465
0.237569
0.231867
0.21405
0.166552
0.139654
0.138738
0.141582
0.147337
0.15351
0.159281
0.1648
0.170314
0.176007
0.182072
0.188736
0.196318
0.205184
0.212844
0.214808
0.213138
0.20201
0.166206
0.14268
0.141358
0.143006
0.147073
0.151108
0.154147
0.15663
0.15903
0.161564
0.164235
0.166917
0.169495
0.17213
0.175554
0.181332
0.188504
0.190331
0.188369
0.176225
0.150276
0.140593
0.140271
0.141656
0.144629
0.147288
0.14895
0.150127
0.151282
0.152622
0.154121
0.155602
0.156959
0.158369
0.160406
0.16423
0.169534
0.17155
0.170506
0.163948
0.146835
0.136309
0.135389
0.135745
0.137505
0.13956
0.140716
0.141194
0.141513
0.141965
0.142665
0.143563
0.144527
0.145519
0.146784
0.148911
0.15286
0.157772
0.160064
0.160742
0.157053
0.146089
0.140403
0.141215
0.143554
0.14757
0.151888
0.155308
0.157864
0.160155
0.162622
0.165427
0.168401
0.171289
0.174247
0.177999
0.183621
0.190797
0.193745
0.193285
0.184428
0.174471
0.173735
0.176034
0.180947
0.187101
0.192286
0.196131
0.199628
0.203512
0.208077
0.213455
0.21996
0.228746
0.240503
0.250644
0.256065
0.253665
0.245426
0.244717
0.252069
0.264702
0.280725
0.296162
0.309805
0.323429
0.339215
0.360012
0.388477
0.419385
0.439435
0.451859
0.455343
0.481749
0.529012
0.600036
0.689022
0.796044
0.923829
1.02734
1.09705
1.13845
1.20132
1.29449
1.43431
1.53904
1.57424
1.56768
1.55746
1.57153
1.60856
1.64163
1.64733
1.63986
1.62595
1.62606
1.63265
1.64366
1.64711
1.64634
1.64205
1.63994
1.64069
1.6431
1.64502
1.64551
1.64521
1.64527
1.64603
1.64776
1.64969
1.65029
1.65036
1.65012
1.65021
1.65055
1.65098
1.65122
1.65124
1.65093
1.65053
1.6504
1.65056
1.65084
1.65117
1.6516
1.65213
1.65263
1.65291
1.65306
1.65306
1.65288
1.65257
1.6523
1.65215
1.65208
1.65208
1.65212
1.65219
1.65226
1.65229
1.65228
1.65223
1.65216
1.65212
1.65216
1.65225
1.65236
1.65251
1.6527
1.65286
1.65295
1.65299
1.65299
1.65296
1.65285
1.65258
1.65203
1.65107
1.64964
1.64794
1.64671
1.6463
1.64645
1.64701
1.64788
1.64889
1.65005
1.65152
1.65327
1.65506
1.65624
1.65661
1.65661
1.65655
1.6562
1.65533
1.65379
1.6517
1.6499
1.64913
1.64879
1.64857
1.6486
1.64896
1.64966
1.65048
1.65121
1.65151
1.65177
1.65202
1.65217
1.6522
1.65203
1.65165
1.65114
1.65062
1.65013
1.64966
1.64923
1.64879
1.64837
1.64808
1.64801
1.64832
1.64897
1.64991
1.65105
1.65218
1.65286
1.65304
1.65293
1.65281
1.65258
1.6521
1.65121
1.64996
1.6488
1.64818
1.64809
1.64824
1.64857
1.64923
1.65034
1.65192
1.65376
1.65566
1.6574
22.0437
0.23811
0.133325
0.145816
0.157198
0.183199
0.213214
0.237074
0.243436
0.242583
0.240538
0.237673
0.231928
0.214299
0.167074
0.139827
0.138857
0.141652
0.147388
0.15357
0.159349
0.164871
0.170391
0.176101
0.182205
0.188927
0.196565
0.205449
0.213176
0.215195
0.21353
0.202421
0.166546
0.142867
0.14152
0.143167
0.147239
0.151281
0.154322
0.156803
0.159205
0.161742
0.164418
0.167104
0.169686
0.172326
0.175765
0.181569
0.188639
0.190299
0.188251
0.175875
0.149928
0.140461
0.140156
0.141549
0.144529
0.1472
0.148876
0.150052
0.151204
0.152538
0.154023
0.155481
0.156816
0.158211
0.160251
0.164137
0.169599
0.171732
0.170729
0.164212
0.147041
0.136424
0.135502
0.135862
0.137648
0.139746
0.140915
0.141375
0.141651
0.142035
0.142682
0.143572
0.144529
0.145496
0.146739
0.148854
0.152803
0.157717
0.159992
0.160665
0.156959
0.146037
0.14043
0.141258
0.143599
0.147616
0.151959
0.155416
0.158002
0.160314
0.162788
0.165582
0.168554
0.171483
0.174513
0.17835
0.184091
0.191514
0.194665
0.194302
0.185437
0.175465
0.174802
0.177189
0.182193
0.188309
0.193272
0.196813
0.200007
0.203586
0.207904
0.213084
0.219405
0.227956
0.239547
0.249584
0.254736
0.252166
0.243517
0.242201
0.249112
0.2613
0.277076
0.292566
0.30653
0.320725
0.337276
0.358892
0.388337
0.421445
0.443355
0.457401
0.460746
0.485604
0.529819
0.594615
0.671189
0.758736
0.861431
0.951859
1.0182
1.06512
1.1312
1.22454
1.36673
1.50456
1.55896
1.57024
1.56012
1.57246
1.60348
1.63843
1.64605
1.64097
1.62707
1.62584
1.6314
1.64266
1.64745
1.64713
1.64311
1.63999
1.64048
1.64262
1.64521
1.646
1.64603
1.6459
1.64647
1.64777
1.64953
1.65024
1.65037
1.6502
1.6503
1.65063
1.65109
1.65134
1.65138
1.65105
1.65064
1.65061
1.65088
1.65125
1.6517
1.6522
1.65271
1.65309
1.65328
1.65341
1.65338
1.6532
1.65288
1.65257
1.65235
1.65222
1.65215
1.65215
1.65222
1.6523
1.65236
1.65239
1.65236
1.6523
1.65221
1.65217
1.65218
1.65224
1.65234
1.65251
1.6527
1.65284
1.6529
1.65293
1.65291
1.6528
1.65253
1.65198
1.65102
1.64961
1.64789
1.64656
1.64606
1.64616
1.64667
1.64749
1.6485
1.64965
1.65112
1.65293
1.65477
1.65594
1.65628
1.65622
1.6561
1.65573
1.65489
1.65345
1.65154
1.6499
1.64923
1.64898
1.64883
1.64889
1.64923
1.64985
1.65055
1.65124
1.65158
1.65202
1.65248
1.65285
1.65299
1.65281
1.65235
1.65172
1.65109
1.65051
1.65005
1.64978
1.64959
1.64941
1.64931
1.64935
1.64962
1.65013
1.65087
1.65175
1.65248
1.65277
1.65273
1.65255
1.65238
1.65211
1.65163
1.6508
1.64968
1.64871
1.64817
1.648
1.64803
1.64819
1.64859
1.64932
1.65045
1.65177
1.65318
1.6546
22.1435
0.14452
0.133071
0.145973
0.157393
0.18278
0.212439
0.236544
0.243175
0.242376
0.240448
0.237716
0.23223
0.214951
0.167866
0.140019
0.138966
0.141715
0.147438
0.153633
0.159421
0.164947
0.170469
0.176183
0.182291
0.189026
0.19668
0.205569
0.213294
0.215338
0.213701
0.202694
0.166895
0.14301
0.141627
0.143252
0.14731
0.151348
0.154389
0.156867
0.159262
0.161794
0.164461
0.167136
0.169706
0.172339
0.175786
0.181606
0.188617
0.190168
0.188089
0.175621
0.149757
0.140453
0.140179
0.14159
0.144585
0.147269
0.148959
0.150157
0.151323
0.152657
0.154129
0.155571
0.156885
0.15825
0.160254
0.164101
0.169537
0.171667
0.170673
0.164192
0.147049
0.136413
0.135493
0.135866
0.13767
0.139796
0.141009
0.141515
0.14184
0.142278
0.142945
0.143787
0.144676
0.145606
0.146823
0.148926
0.152887
0.157758
0.159924
0.16053
0.156698
0.145711
0.140201
0.141048
0.143409
0.147448
0.151784
0.155232
0.157828
0.160167
0.162682
0.165546
0.168648
0.171726
0.174881
0.178825
0.184692
0.19237
0.195711
0.195401
0.186414
0.176375
0.175785
0.178291
0.183426
0.189561
0.194355
0.197641
0.200584
0.203938
0.208088
0.213141
0.219331
0.227773
0.239257
0.249181
0.254122
0.251257
0.242096
0.240307
0.246889
0.25873
0.274276
0.28975
0.303944
0.318614
0.335831
0.358173
0.388527
0.423441
0.446901
0.461863
0.464525
0.487152
0.527442
0.584726
0.649603
0.721061
0.805004
0.887735
0.953383
1.00826
1.07871
1.17451
1.31689
1.47368
1.54807
1.5722
1.56337
1.57337
1.59923
1.63496
1.64498
1.642
1.62881
1.62607
1.63066
1.64154
1.64738
1.64746
1.64393
1.6402
1.64051
1.64245
1.64542
1.64652
1.64673
1.64648
1.6469
1.64787
1.64943
1.65023
1.65042
1.65035
1.65048
1.65082
1.65128
1.65152
1.65153
1.65118
1.65079
1.65085
1.65115
1.65161
1.65217
1.65272
1.65314
1.65339
1.65355
1.65365
1.65363
1.65347
1.65316
1.65283
1.65255
1.65235
1.65221
1.65214
1.65216
1.65224
1.65234
1.65241
1.65243
1.65241
1.65233
1.65222
1.65215
1.65217
1.65223
1.65236
1.65256
1.65276
1.65285
1.65289
1.65288
1.65278
1.6525
1.65196
1.65103
1.64966
1.64797
1.64655
1.64594
1.64596
1.64642
1.64718
1.6482
1.64933
1.65077
1.65257
1.65447
1.65566
1.65597
1.65587
1.6557
1.65532
1.65454
1.6532
1.65145
1.64997
1.64942
1.64924
1.64916
1.64924
1.64955
1.65007
1.65065
1.6513
1.65168
1.65229
1.65293
1.65344
1.65366
1.65345
1.65286
1.65212
1.65135
1.6507
1.65022
1.65006
1.65011
1.65017
1.6503
1.65049
1.65077
1.65121
1.65182
1.65244
1.65274
1.65276
1.65252
1.65226
1.65202
1.65171
1.65125
1.6505
1.64955
1.64877
1.64829
1.64799
1.64785
1.64784
1.648
1.64835
1.64902
1.64982
1.65072
1.65172
22.105
0.192674
0.132443
0.146026
0.157605
0.182413
0.211519
0.235781
0.242738
0.242031
0.24024
0.237655
0.232469
0.215785
0.169008
0.140247
0.139081
0.141782
0.147497
0.153706
0.159504
0.165021
0.170521
0.176214
0.182299
0.189006
0.196637
0.205524
0.213276
0.215329
0.213715
0.202851
0.16727
0.143126
0.141688
0.143274
0.147309
0.151337
0.15436
0.156818
0.159195
0.161706
0.164354
0.167004
0.169548
0.172159
0.1756
0.181429
0.188448
0.190018
0.187985
0.175587
0.1498
0.140528
0.140284
0.141727
0.144763
0.147485
0.149201
0.150411
0.151578
0.152907
0.154371
0.155805
0.15711
0.158464
0.160449
0.164243
0.169544
0.171545
0.170509
0.163979
0.146881
0.13633
0.135416
0.13579
0.137602
0.139767
0.141057
0.141646
0.142057
0.142577
0.143311
0.144187
0.145065
0.145943
0.147101
0.149169
0.153115
0.157872
0.159873
0.160376
0.156323
0.14518
0.139799
0.140651
0.142989
0.146993
0.151308
0.15477
0.157413
0.159828
0.162451
0.165453
0.168678
0.171901
0.175208
0.179306
0.185344
0.193228
0.196672
0.196366
0.187166
0.176993
0.176499
0.179166
0.184451
0.190643
0.195382
0.1986
0.201465
0.204737
0.208754
0.213596
0.219642
0.22805
0.239595
0.249403
0.254156
0.250914
0.241295
0.239293
0.245702
0.25731
0.272669
0.288086
0.302408
0.317378
0.335015
0.357873
0.388941
0.425169
0.449629
0.464957
0.466596
0.487077
0.523639
0.574988
0.632204
0.694324
0.768127
0.847596
0.914157
0.976089
1.0503
1.14811
1.28921
1.4542
1.54282
1.57376
1.56606
1.57336
1.59596
1.63205
1.64459
1.64308
1.63062
1.6264
1.6302
1.64055
1.64732
1.64775
1.64471
1.64063
1.64068
1.64246
1.6456
1.64703
1.64735
1.64706
1.6473
1.64805
1.64938
1.65026
1.6505
1.65056
1.65076
1.65111
1.65154
1.65175
1.65171
1.65132
1.65095
1.65106
1.65139
1.65192
1.65255
1.65307
1.65337
1.65355
1.65369
1.65378
1.65376
1.65361
1.65335
1.65302
1.6527
1.65243
1.65221
1.65205
1.65201
1.65206
1.65219
1.65235
1.65246
1.65249
1.65246
1.65234
1.65221
1.65216
1.65221
1.6523
1.65247
1.6527
1.65284
1.65288
1.65288
1.65279
1.65253
1.65201
1.65112
1.64982
1.64818
1.6467
1.64594
1.6459
1.64631
1.64702
1.64803
1.64913
1.6505
1.65225
1.65417
1.65538
1.6557
1.65559
1.65536
1.65499
1.65429
1.65309
1.65152
1.65022
1.64975
1.64965
1.64963
1.64971
1.64997
1.65038
1.65085
1.6514
1.65183
1.65255
1.65329
1.65387
1.65411
1.65385
1.65316
1.65232
1.65142
1.6507
1.65019
1.65009
1.65031
1.65059
1.65096
1.65131
1.65167
1.65213
1.65266
1.65299
1.65299
1.65279
1.65237
1.65204
1.65173
1.65139
1.65091
1.65025
1.6495
1.64891
1.64851
1.64819
1.64788
1.64759
1.64745
1.64743
1.64765
1.64797
1.64841
1.64895
22.1512
0.150726
0.132141
0.14574
0.157371
0.182067
0.210856
0.235095
0.242254
0.241626
0.239928
0.237455
0.232476
0.216487
0.170398
0.140645
0.139295
0.141899
0.147578
0.153789
0.159587
0.165098
0.170581
0.176241
0.182283
0.188931
0.196509
0.20537
0.21309
0.215131
0.213557
0.202923
0.167707
0.143226
0.141722
0.143253
0.147248
0.151257
0.154265
0.156702
0.159053
0.161533
0.164143
0.166754
0.169264
0.171855
0.175294
0.181147
0.188283
0.189968
0.187996
0.175685
0.149931
0.140648
0.140422
0.141895
0.144977
0.147748
0.149501
0.150733
0.151916
0.153253
0.154723
0.156154
0.157446
0.158772
0.160706
0.164431
0.16957
0.171388
0.170295
0.163679
0.146628
0.136245
0.135352
0.135729
0.137548
0.139768
0.141152
0.141829
0.142308
0.142889
0.14369
0.144639
0.145571
0.14646
0.147583
0.149583
0.153428
0.15796
0.159722
0.160094
0.155823
0.144528
0.139282
0.140132
0.142423
0.146344
0.150608
0.154096
0.156834
0.159382
0.162158
0.165307
0.16867
0.172007
0.175435
0.179649
0.185815
0.193855
0.197391
0.197109
0.187762
0.177412
0.176918
0.179691
0.185096
0.191413
0.196326
0.199751
0.202788
0.206111
0.210036
0.214692
0.2205
0.228752
0.240193
0.24968
0.254211
0.250716
0.240986
0.238968
0.245311
0.256833
0.272103
0.287448
0.301762
0.316814
0.334632
0.357829
0.389441
0.426593
0.451585
0.466847
0.467629
0.486672
0.520894
0.569273
0.623231
0.681604
0.751431
0.830353
0.898642
0.963988
1.04065
1.13958
1.27851
1.44502
1.54119
1.57514
1.56805
1.57328
1.59405
1.63017
1.64461
1.64391
1.63176
1.6265
1.62991
1.64001
1.64749
1.64817
1.64544
1.64109
1.64089
1.64252
1.64576
1.6475
1.64791
1.64763
1.64769
1.64828
1.64938
1.6503
1.6506
1.65079
1.65103
1.65144
1.65181
1.65199
1.65189
1.65145
1.6511
1.65124
1.65157
1.65214
1.65277
1.65319
1.65343
1.65359
1.65371
1.65377
1.65375
1.65363
1.6534
1.6531
1.65279
1.65248
1.65218
1.65192
1.65181
1.65184
1.65196
1.65218
1.65242
1.65252
1.65254
1.65247
1.65232
1.65221
1.65223
1.6523
1.65245
1.65267
1.65285
1.65291
1.65293
1.65286
1.65263
1.65214
1.6513
1.65009
1.64855
1.64704
1.64612
1.64598
1.64634
1.64701
1.64801
1.64909
1.65037
1.65202
1.6539
1.65515
1.65548
1.65539
1.65511
1.65477
1.65415
1.65311
1.65174
1.65063
1.65023
1.65018
1.65019
1.65028
1.65046
1.65072
1.65107
1.65149
1.652
1.65273
1.65348
1.65404
1.65427
1.65399
1.65327
1.65233
1.65133
1.65052
1.64998
1.64992
1.65025
1.65071
1.65132
1.65185
1.65236
1.65287
1.65324
1.65326
1.65308
1.65266
1.65221
1.65182
1.65147
1.65109
1.65062
1.65008
1.64955
1.64915
1.64879
1.64841
1.648
1.64753
1.64704
1.64661
1.64642
1.64634
1.64637
1.64644
22.1522
0.152794
0.131137
0.145784
0.157447
0.181917
0.210696
0.234788
0.241824
0.241172
0.239467
0.237023
0.23222
0.216795
0.171671
0.141134
0.139594
0.14207
0.147692
0.153917
0.159724
0.165221
0.170664
0.176266
0.182226
0.18878
0.196257
0.205031
0.212687
0.214738
0.213238
0.202909
0.168184
0.143322
0.141745
0.143213
0.147164
0.15116
0.154153
0.156563
0.158879
0.161319
0.163887
0.166461
0.168952
0.17155
0.175022
0.180934
0.188196
0.189971
0.188053
0.17585
0.150121
0.140787
0.140568
0.14206
0.145175
0.147984
0.149769
0.151028
0.152239
0.153613
0.155116
0.156557
0.157822
0.159088
0.160946
0.164593
0.169594
0.171255
0.170119
0.163423
0.146446
0.13624
0.135376
0.135758
0.137586
0.139833
0.141266
0.141996
0.142532
0.143178
0.144047
0.145064
0.146054
0.146981
0.148104
0.150065
0.153817
0.158077
0.159577
0.159803
0.155276
0.143822
0.138691
0.139527
0.141781
0.145625
0.149827
0.15331
0.15608
0.158681
0.161534
0.164812
0.168364
0.171873
0.17539
0.179646
0.185856
0.194028
0.197722
0.197559
0.18822
0.177615
0.177042
0.179897
0.185437
0.192009
0.197305
0.201106
0.204409
0.207915
0.211911
0.216507
0.22217
0.230206
0.241287
0.250141
0.254347
0.250619
0.240869
0.239047
0.245395
0.256869
0.272058
0.287323
0.301565
0.316618
0.334558
0.357986
0.389977
0.427724
0.453021
0.468118
0.468388
0.48672
0.520089
0.567564
0.6207
0.678253
0.747357
0.82697
0.896208
0.963052
1.04015
1.13886
1.27573
1.44117
1.54088
1.57643
1.56976
1.57388
1.59389
1.62939
1.64435
1.64397
1.63209
1.62652
1.62988
1.64006
1.64785
1.64866
1.64601
1.64145
1.64111
1.6427
1.64597
1.64791
1.64837
1.64813
1.64807
1.64854
1.64946
1.65034
1.6507
1.65094
1.65123
1.65169
1.65204
1.65219
1.65203
1.65156
1.65123
1.65138
1.6517
1.65224
1.6528
1.65315
1.65334
1.65348
1.65357
1.65362
1.6536
1.65351
1.65333
1.65308
1.6528
1.65249
1.65213
1.6518
1.65164
1.65165
1.65175
1.65197
1.6523
1.65254
1.6526
1.65259
1.65246
1.65231
1.65227
1.65233
1.65245
1.65265
1.65286
1.65295
1.65299
1.65296
1.65278
1.65236
1.65162
1.6505
1.64907
1.64756
1.6465
1.64625
1.64653
1.64718
1.64814
1.6492
1.6504
1.65193
1.65373
1.65501
1.65537
1.6553
1.65498
1.65466
1.65413
1.65325
1.65211
1.65118
1.65083
1.65079
1.65081
1.65085
1.65093
1.65105
1.6513
1.6516
1.65211
1.65278
1.65346
1.65393
1.65409
1.65375
1.65304
1.6521
1.65107
1.65021
1.64963
1.64957
1.65001
1.65061
1.65139
1.65211
1.65276
1.65325
1.65343
1.65327
1.65294
1.65241
1.65194
1.6515
1.65109
1.6507
1.65031
1.64995
1.64969
1.64948
1.64918
1.64876
1.64822
1.64759
1.64689
1.64612
1.64541
1.64488
1.6446
1.64429
22.1708
0.135783
0.13164
0.145651
0.156993
0.181918
0.211073
0.234954
0.241689
0.240933
0.239083
0.236489
0.231618
0.216645
0.172576
0.141522
0.139813
0.142161
0.14772
0.153956
0.159787
0.16529
0.170716
0.176261
0.182123
0.188558
0.195925
0.204581
0.212141
0.214199
0.212785
0.202787
0.168602
0.143417
0.141743
0.143173
0.147091
0.151088
0.154079
0.156471
0.158755
0.161159
0.163692
0.166242
0.168728
0.171346
0.174856
0.180821
0.188182
0.19003
0.188149
0.176052
0.150347
0.140935
0.140713
0.142204
0.145338
0.148182
0.150003
0.151294
0.152534
0.153939
0.155472
0.156928
0.158176
0.159399
0.161195
0.164765
0.169636
0.171181
0.170036
0.163314
0.146407
0.136357
0.135524
0.135917
0.137754
0.14002
0.141478
0.14223
0.142786
0.143462
0.144372
0.145428
0.146442
0.147369
0.148463
0.150385
0.154118
0.158171
0.159405
0.159489
0.154743
0.143129
0.138083
0.138888
0.141072
0.144847
0.149007
0.152482
0.155259
0.157868
0.160737
0.16404
0.167634
0.171239
0.174914
0.179306
0.18556
0.193779
0.19762
0.197677
0.188616
0.177757
0.177013
0.179964
0.185676
0.192559
0.198271
0.202474
0.206147
0.209976
0.214219
0.218945
0.224603
0.232517
0.243297
0.25136
0.255137
0.25097
0.241173
0.239668
0.246014
0.2575
0.272609
0.287741
0.301863
0.316863
0.334806
0.358345
0.390565
0.428322
0.453652
0.468924
0.469742
0.488625
0.522448
0.570357
0.623821
0.682131
0.75237
0.832047
0.901406
0.968544
1.04577
1.14354
1.27886
1.44224
1.5408
1.57653
1.57119
1.57556
1.5951
1.62973
1.64385
1.64342
1.63198
1.62707
1.63053
1.6407
1.64832
1.64908
1.64631
1.64175
1.64144
1.64301
1.64627
1.64821
1.64867
1.64845
1.64837
1.6488
1.64961
1.65038
1.65071
1.65095
1.65127
1.6518
1.65217
1.65231
1.65214
1.65167
1.65136
1.65149
1.65179
1.65229
1.65276
1.65299
1.65314
1.65325
1.65333
1.65338
1.65337
1.65331
1.65318
1.65299
1.65274
1.65242
1.65203
1.65166
1.65149
1.6515
1.65158
1.6518
1.65218
1.65254
1.65268
1.6527
1.65262
1.65245
1.65234
1.65237
1.65246
1.65264
1.65285
1.65298
1.65304
1.65305
1.65295
1.65263
1.65202
1.65105
1.64975
1.64828
1.64712
1.64671
1.64691
1.64754
1.64844
1.64949
1.65059
1.65202
1.65371
1.65499
1.65537
1.65532
1.65498
1.65465
1.65418
1.65346
1.65253
1.65178
1.65149
1.65144
1.65143
1.65142
1.65138
1.65141
1.65148
1.65172
1.65216
1.65272
1.65324
1.65358
1.65364
1.65325
1.65257
1.65167
1.6507
1.64984
1.64924
1.64917
1.64966
1.65036
1.65125
1.65206
1.65278
1.65323
1.65328
1.65305
1.65257
1.65204
1.65152
1.65101
1.65053
1.65012
1.64988
1.64977
1.64982
1.6498
1.6496
1.64923
1.64865
1.64788
1.64697
1.64595
1.64481
1.64378
1.64318
1.64257
22.1586
0.153394
0.132607
0.1455
0.157055
0.18227
0.211458
0.235097
0.241619
0.240765
0.238774
0.235982
0.230945
0.216264
0.173163
0.141787
0.139945
0.142173
0.147672
0.153912
0.159764
0.165276
0.170691
0.176205
0.182003
0.188352
0.195638
0.20422
0.211666
0.213662
0.212304
0.202568
0.168869
0.143486
0.141742
0.143145
0.147046
0.151056
0.15406
0.156448
0.158718
0.161103
0.163619
0.166156
0.168636
0.171253
0.174764
0.180736
0.188166
0.190098
0.188267
0.176288
0.15061
0.141108
0.140879
0.142367
0.145517
0.148387
0.15023
0.151533
0.152783
0.154198
0.155741
0.157202
0.158452
0.159667
0.16144
0.164969
0.169767
0.171249
0.170107
0.163393
0.146544
0.136603
0.135798
0.136198
0.138037
0.140308
0.141776
0.142538
0.143102
0.143783
0.144697
0.145749
0.14674
0.147626
0.148661
0.150514
0.154221
0.158129
0.159147
0.15909
0.154191
0.142474
0.137479
0.138225
0.140305
0.143957
0.148055
0.151511
0.154273
0.156864
0.159706
0.162982
0.166582
0.170245
0.173996
0.178438
0.184712
0.193023
0.197057
0.197439
0.189008
0.178069
0.177083
0.180081
0.185925
0.193082
0.199208
0.203847
0.20792
0.212124
0.216706
0.221705
0.227539
0.23553
0.246258
0.253703
0.256996
0.252294
0.242448
0.241367
0.247736
0.259291
0.274404
0.28935
0.303186
0.317921
0.335628
0.359055
0.391209
0.428412
0.453652
0.469367
0.47256
0.494641
0.531528
0.582583
0.638989
0.700642
0.774181
0.853762
0.921278
0.986185
1.06309
1.1602