/*--------------------------------*- C++ -*----------------------------------*\
| =========                 |                                                 |
| \\      /  F ield         | OpenFOAM: The Open Source CFD Toolbox           |
|  \\    /   O peration     | Version:  2306                                  |
|   \\  /    A nd           | Website:  www.openfoam.com                      |
|    \\/     M anipulation  |                                                 |
\*---------------------------------------------------------------------------*/
FoamFile
{
    version     2.0;
    format      ascii;
    arch        "LSB;label=32;scalar=64";
    class       volVectorField;
    location    "0.08";
    object      U;
}
// * * * * * * * * * * * * * * * * * * * * * * * * * * * * * * * * * * * * * //

dimensions      [0 1 -1 0 0 0 0];

internalField   nonuniform List<vector> 
6000
(
(500 1.85649e-14 0)
(500 4.74788e-14 0)
(500 7.21476e-15 0)
(500 1.47957e-14 0)
(500 -5.19128e-14 0)
(500 -1.32287e-13 0)
(500 -1.09407e-14 0)
(500 5.49402e-15 0)
(500 -4.02591e-14 0)
(500 2.73224e-14 0)
(500 9.7534e-14 0)
(500 3.67486e-14 0)
(500 6.63751e-14 0)
(500 -2.34903e-14 0)
(500 -1.3424e-13 0)
(500 -1.1317e-13 0)
(500 6.70857e-14 0)
(500 -1.74904e-14 0)
(500 -4.03577e-14 0)
(500 -7.69642e-14 0)
(500 6.48284e-14 0)
(500 1.24604e-13 0)
(500 6.00881e-14 0)
(500 -6.0734e-15 0)
(500 1.16162e-13 0)
(500 -6.59715e-13 0)
(500 3.9227e-12 0)
(500 -1.21268e-11 0)
(500 1.21622e-11 0)
(500 2.66547e-10 0)
(500 -1.78239e-09 0)
(500 8.84078e-09 0)
(500 -1.65968e-08 0)
(500 2.21612e-08 0)
(499.999 1.1869e-07 0)
(499.998 -4.11557e-07 0)
(499.995 1.1805e-06 0)
(499.986 3.87277e-07 0)
(499.964 -4.1889e-06 0)
(499.914 1.73646e-05 0)
(499.809 -1.62744e-05 0)
(499.62 1.5854e-05 0)
(499.37 8.24008e-05 0)
(499.201 -0.000117834 0)
(499.178 9.00467e-06 0)
(499.194 3.97356e-05 0)
(499.266 -0.0001099 0)
(499.439 2.86663e-05 0)
(499.731 0.0012697 0)
(500.136 -0.00153584 0)
(500.624 -0.00187659 0)
(501.152 0.00566981 0)
(501.689 0.00223033 0)
(502.217 -0.00784713 0)
(502.715 -0.000756276 0)
(503.156 0.0116495 0)
(503.544 0.00236835 0)
(503.879 -0.00939235 0)
(504.156 -0.00316289 0)
(504.366 0.00862551 0)
(504.528 0.0059638 0)
(504.663 -0.00371068 0)
(504.775 -0.00572885 0)
(504.869 -0.00104225 0)
(504.947 0.00463115 0)
(505.014 0.00327343 0)
(505.077 -0.00180696 0)
(505.134 -0.00341514 0)
(505.187 -0.00141198 0)
(505.233 0.00194721 0)
(505.273 0.00193924 0)
(505.302 -0.000513172 0)
(505.314 -0.00126104 0)
(505.316 -0.00120687 0)
(505.316 -0.000326771 0)
(505.314 0.000391621 0)
(505.31 0.000425614 0)
(505.303 7.81012e-05 0)
(505.29 -0.000386059 0)
(505.273 -0.000646329 0)
(505.252 -0.000212282 0)
(505.229 0.000645089 0)
(505.208 0.000513596 0)
(505.19 -0.00051228 0)
(505.176 -0.000698955 0)
(505.165 0.000111385 0)
(505.155 0.000444196 0)
(505.146 0.00027295 0)
(505.139 -0.000217384 0)
(505.133 -0.000359723 0)
(505.128 -6.25886e-05 0)
(505.124 0.000157089 0)
(505.12 0.000136469 0)
(505.118 2.63141e-05 0)
(505.115 -9.0526e-05 0)
(505.113 -0.000107975 0)
(505.111 -4.27787e-05 0)
(505.109 6.51858e-05 0)
(505.109 8.00039e-05 0)
(505.109 3.82413e-05 0)
(505.11 -2.16492e-05 0)
(505.111 -3.03472e-05 0)
(505.113 -1.25135e-05 0)
(505.117 4.25661e-05 0)
(505.122 2.64297e-05 0)
(505.129 -7.47693e-06 0)
(505.138 5.1147e-05 0)
(505.147 -1.57758e-05 0)
(505.157 -0.000149107 0)
(505.167 4.35078e-05 0)
(505.175 0.000215333 0)
(505.182 -1.15411e-05 0)
(505.189 -0.000150703 0)
(505.195 -1.53266e-05 0)
(505.2 0.000106095 0)
(505.204 0.000103909 0)
(505.204 -5.10331e-06 0)
(505.204 -9.205e-05 0)
(505.204 -9.68264e-05 0)
(505.203 -2.44734e-05 0)
(505.201 -2.99758e-06 0)
(505.197 9.07845e-06 0)
(505.192 4.32515e-05 0)
(505.185 -9.88055e-06 0)
(505.178 -0.00013805 0)
(505.172 4.62907e-06 0)
(505.166 0.000137224 0)
(505.161 5.88436e-05 0)
(505.158 -4.68629e-05 0)
(505.155 -5.80226e-05 0)
(505.152 -2.13244e-05 0)
(505.149 3.03822e-05 0)
(505.147 2.39228e-05 0)
(505.145 -2.5771e-06 0)
(505.143 -3.1113e-05 0)
(505.141 -4.27883e-05 0)
(505.139 -1.69028e-05 0)
(505.137 2.18505e-06 0)
(505.133 -3.67011e-06 0)
(505.129 -1.1526e-05 0)
(505.123 -3.11715e-05 0)
(505.116 -4.05968e-05 0)
(505.112 -4.95683e-06 0)
(505.112 2.03745e-05 0)
(505.112 1.65715e-05 0)
(505.113 7.70419e-06 0)
(505.116 2.49638e-05 0)
(505.122 1.04212e-06 0)
(505.13 3.49399e-05 0)
(505.141 0.000122835 0)
(505.152 2.76566e-05 0)
(505.161 -4.03871e-05 0)
(505.168 -2.61063e-05 0)
(505.173 3.08412e-06 0)
(505.176 -3.97552e-06 0)
(505.18 -3.01825e-05 0)
(505.184 -5.97991e-05 0)
(505.188 -1.80257e-05 0)
(505.192 1.32595e-05 0)
(505.197 3.82182e-05 0)
(505.2 4.37489e-05 0)
(505.201 4.2043e-05 0)
(505.201 4.16418e-05 0)
(505.201 4.80618e-05 0)
(505.201 4.4679e-05 0)
(505.199 3.09518e-05 0)
(505.196 1.06869e-05 0)
(505.192 -1.16918e-05 0)
(505.187 -2.3129e-05 0)
(505.181 -2.418e-05 0)
(505.175 -4.83623e-05 0)
(505.169 -6.51025e-05 0)
(505.164 -7.23287e-05 0)
(505.159 -8.50437e-05 0)
(505.155 -9.06634e-05 0)
(505.152 -7.22213e-05 0)
(505.15 -2.02343e-05 0)
(505.148 3.05398e-05 0)
(505.146 8.16128e-05 0)
(505.145 0.000103798 0)
(505.144 8.39797e-05 0)
(505.143 3.07228e-05 0)
(505.142 1.55227e-05 0)
(505.141 1.13565e-05 0)
(505.139 2.59892e-06 0)
(505.136 -1.25993e-05 0)
(505.133 -2.47766e-05 0)
(505.128 -5.51957e-05 0)
(505.121 -6.73469e-05 0)
(505.113 -7.58879e-05 0)
(505.108 -4.74139e-05 0)
(505.106 -3.08738e-06 0)
(505.106 2.45488e-05 0)
(505.108 4.17247e-05 0)
(505.112 4.89955e-05 0)
(505.118 4.50328e-05 0)
(505.129 1.7812e-05 0)
(505.141 -4.56452e-06 0)
(505.154 5.69574e-05 0)
(505.164 6.91606e-05 0)
(505.171 -3.25941e-05 0)
(505.176 -8.54696e-05 0)
(505.179 -6.62797e-05 0)
(505.182 -5.44494e-05 0)
(505.185 -2.72882e-05 0)
(505.187 4.14143e-05 0)
(505.19 8.40997e-05 0)
(505.194 9.58719e-05 0)
(505.198 0.000106036 0)
(505.203 4.03083e-05 0)
(505.206 -4.07372e-05 0)
(505.207 -6.18851e-05 0)
(505.206 -6.08174e-05 0)
(505.206 -2.94614e-05 0)
(505.204 1.38059e-05 0)
(505.201 4.35664e-06 0)
(505.197 -1.72503e-05 0)
(505.191 -2.67059e-05 0)
(505.184 -2.66374e-05 0)
(505.176 -1.27628e-05 0)
(505.169 7.29143e-06 0)
(505.163 9.5096e-06 0)
(505.158 -3.65922e-06 0)
(505.155 -3.3032e-05 0)
(505.153 -3.38297e-05 0)
(505.151 -1.89993e-05 0)
(505.149 2.76933e-06 0)
(505.148 2.14206e-05 0)
(505.146 1.62402e-05 0)
(505.144 8.07622e-06 0)
(505.143 1.66858e-05 0)
(505.141 2.77166e-05 0)
(505.139 4.11126e-05 0)
(505.136 5.39726e-05 0)
(505.133 6.54311e-05 0)
(505.13 5.69031e-05 0)
(505.126 7.24241e-06 0)
(505.12 -2.87525e-05 0)
(505.111 -6.21315e-05 0)
(505.102 -0.000124746 0)
(505.097 -0.000149948 0)
(505.096 -0.000125058 0)
(505.097 -5.02967e-05 0)
(505.098 4.73672e-06 0)
(505.103 2.79199e-05 0)
(505.113 6.18892e-05 0)
(505.126 3.35245e-05 0)
(505.141 1.59746e-06 0)
(505.154 0.000125277 0)
(505.166 0.000206436 0)
(505.174 0.000224587 0)
(505.179 0.000125019 0)
(505.183 -6.09762e-05 0)
(505.187 -0.000130172 0)
(505.191 -0.000120346 0)
(505.194 -9.70622e-05 0)
(505.198 -0.000102851 0)
(505.202 -0.000149517 0)
(505.206 -0.000263972 0)
(505.21 -0.000229184 0)
(505.213 -5.92519e-05 0)
(505.214 8.52783e-05 0)
(505.214 0.000208684 0)
(505.213 0.000271852 0)
(505.212 0.000301141 0)
(505.21 0.000295262 0)
(505.206 0.000229635 0)
(505.202 7.94692e-05 0)
(505.195 -8.10608e-05 0)
(505.188 -0.000196892 0)
(505.18 -0.000238774 0)
(505.172 -0.000260788 0)
(505.166 -0.000282558 0)
(505.16 -0.000276641 0)
(505.155 -0.000254103 0)
(505.151 -0.000207787 0)
(505.148 -6.33649e-05 0)
(505.144 0.000186273 0)
(505.141 0.000384147 0)
(505.138 0.000456053 0)
(505.135 0.000515225 0)
(505.133 0.00043918 0)
(505.131 0.000164281 0)
(505.128 -7.95535e-05 0)
(505.124 -0.000197881 0)
(505.118 -0.000299736 0)
(505.111 -0.000344088 0)
(505.102 -0.000353357 0)
(505.09 -0.000369457 0)
(505.079 -0.00040778 0)
(505.075 -0.000375677 0)
(505.074 -0.000126463 0)
(505.076 0.00013269 0)
(505.08 0.000260596 0)
(505.091 0.00033345 0)
(505.108 0.000308654 0)
(505.128 0.000318584 0)
(505.149 0.000592435 0)
(505.164 0.000375922 0)
(505.179 -5.98902e-05 0)
(500 1.82511e-13 0)
(500 1.30503e-13 0)
(500 6.76344e-14 0)
(500 -4.74474e-14 0)
(500 -2.00837e-13 0)
(500 -2.43317e-13 0)
(500 -2.40021e-13 0)
(500 -7.83935e-14 0)
(500 -6.20837e-14 0)
(500 4.07647e-14 0)
(500 1.45009e-13 0)
(500 -2.3361e-16 0)
(500 -1.29066e-15 0)
(500 -1.3873e-13 0)
(500 -1.47397e-13 0)
(500 5.23963e-14 0)
(500 1.92626e-13 0)
(500 4.14597e-14 0)
(500 -2.31468e-14 0)
(500 4.81196e-14 0)
(500 1.15335e-13 0)
(500 3.50356e-13 0)
(500 2.04586e-13 0)
(500 2.87267e-14 0)
(500 -7.4448e-14 0)
(500 -9.6909e-13 0)
(500 6.11132e-12 0)
(500 -2.26498e-11 0)
(500 6.19944e-12 0)
(500 5.43029e-10 0)
(500 -4.09256e-09 0)
(500 1.74146e-08 0)
(500 -5.046e-08 0)
(500 5.9425e-08 0)
(499.999 2.1819e-07 0)
(499.998 -1.36253e-06 0)
(499.995 3.79885e-06 0)
(499.986 -4.30271e-06 0)
(499.964 -6.93645e-06 0)
(499.914 4.37909e-05 0)
(499.809 -7.78267e-05 0)
(499.62 -3.4925e-06 0)
(499.37 0.000277055 0)
(499.201 -0.00039276 0)
(499.178 7.54178e-06 0)
(499.194 4.89504e-05 0)
(499.266 -9.12929e-05 0)
(499.439 0.000193822 0)
(499.732 0.000938971 0)
(500.137 -0.0018269 0)
(500.623 -0.00102655 0)
(501.151 0.00545134 0)
(501.692 0.000123841 0)
(502.219 -0.00865173 0)
(502.712 0.00126007 0)
(503.155 0.0114433 0)
(503.55 0.000183391 0)
(503.882 -0.0111026 0)
(504.153 -0.00191676 0)
(504.364 0.00983019 0)
(504.532 0.00555624 0)
(504.667 -0.00451306 0)
(504.775 -0.00676713 0)
(504.868 -0.000367235 0)
(504.946 0.00556727 0)
(505.016 0.0037548 0)
(505.079 -0.001709 0)
(505.135 -0.00404729 0)
(505.186 -0.00140164 0)
(505.233 0.00275439 0)
(505.274 0.0025958 0)
(505.304 -0.000302284 0)
(505.315 -0.0014498 0)
(505.316 -0.0013038 0)
(505.316 -0.000272037 0)
(505.314 0.000772482 0)
(505.311 0.000826894 0)
(505.303 0.000269089 0)
(505.291 -0.000616314 0)
(505.274 -0.000894963 0)
(505.252 -0.000168789 0)
(505.229 0.000835271 0)
(505.208 0.000631227 0)
(505.19 -0.000537585 0)
(505.176 -0.000701689 0)
(505.164 6.27653e-05 0)
(505.155 0.000486418 0)
(505.146 0.000269404 0)
(505.139 -0.000284934 0)
(505.133 -0.000398314 0)
(505.127 6.2399e-07 0)
(505.123 0.000318105 0)
(505.12 0.000185804 0)
(505.118 -9.53647e-05 0)
(505.115 -0.000233366 0)
(505.113 -0.000263204 0)
(505.111 -0.000148665 0)
(505.109 6.81301e-05 0)
(505.109 0.000141526 0)
(505.109 0.000115888 0)
(505.11 3.85306e-06 0)
(505.111 -3.28179e-05 0)
(505.113 -1.56731e-05 0)
(505.117 3.97035e-05 0)
(505.122 4.77382e-05 0)
(505.129 1.75456e-05 0)
(505.138 1.63282e-05 0)
(505.148 -0.000116801 0)
(505.157 -0.000166716 0)
(505.167 6.78972e-05 0)
(505.175 0.000210078 0)
(505.182 2.53049e-07 0)
(505.189 -0.000162361 0)
(505.195 7.63698e-05 0)
(505.2 0.000208888 0)
(505.204 0.000196616 0)
(505.204 5.99433e-06 0)
(505.204 -0.000171494 0)
(505.204 -0.000210547 0)
(505.203 -8.1505e-05 0)
(505.201 -2.55155e-05 0)
(505.197 -1.27386e-05 0)
(505.192 6.37155e-06 0)
(505.185 -6.24605e-05 0)
(505.179 -0.000183909 0)
(505.172 2.08626e-05 0)
(505.166 0.000192131 0)
(505.162 8.37865e-05 0)
(505.158 -3.66215e-05 0)
(505.155 -4.63806e-05 0)
(505.152 -1.98015e-06 0)
(505.149 7.15158e-05 0)
(505.147 6.80092e-05 0)
(505.145 1.74157e-05 0)
(505.143 -3.7354e-05 0)
(505.141 -5.96499e-05 0)
(505.139 -2.78532e-05 0)
(505.137 -4.46687e-06 0)
(505.133 -1.668e-05 0)
(505.129 -2.78225e-05 0)
(505.123 -5.68599e-05 0)
(505.116 -0.000104123 0)
(505.112 -5.35248e-05 0)
(505.112 7.35998e-06 0)
(505.112 1.66765e-05 0)
(505.113 2.6735e-05 0)
(505.116 5.62321e-05 0)
(505.122 2.57172e-05 0)
(505.13 9.54986e-05 0)
(505.141 0.000218365 0)
(505.152 0.000119533 0)
(505.161 2.75746e-05 0)
(505.168 1.7392e-05 0)
(505.172 5.29224e-06 0)
(505.176 -2.95836e-05 0)
(505.18 -0.000101317 0)
(505.184 -0.000200328 0)
(505.188 -0.000185043 0)
(505.193 -0.000137558 0)
(505.197 -3.56129e-05 0)
(505.2 -1.5409e-05 0)
(505.201 -9.89913e-06 0)
(505.201 2.54483e-05 0)
(505.201 9.61529e-05 0)
(505.201 0.000156978 0)
(505.199 0.00017074 0)
(505.196 0.00015158 0)
(505.192 0.000104386 0)
(505.187 2.65671e-05 0)
(505.181 8.28882e-06 0)
(505.175 -3.03334e-05 0)
(505.169 -6.32279e-05 0)
(505.164 -8.13108e-05 0)
(505.159 -0.000131238 0)
(505.155 -0.00020494 0)
(505.152 -0.000234246 0)
(505.15 -0.000236974 0)
(505.148 -0.00016918 0)
(505.146 2.83857e-05 0)
(505.145 0.00022948 0)
(505.144 0.000344303 0)
(505.143 0.000255096 0)
(505.142 0.000106944 0)
(505.141 6.84721e-05 0)
(505.139 6.15506e-05 0)
(505.136 6.82187e-05 0)
(505.133 4.78129e-05 0)
(505.128 -5.83423e-05 0)
(505.121 -0.00011275 0)
(505.113 -0.000170889 0)
(505.108 -0.00018011 0)
(505.106 -0.000109812 0)
(505.106 -9.61414e-06 0)
(505.108 7.01975e-05 0)
(505.112 0.000134096 0)
(505.118 0.00011948 0)
(505.129 8.44778e-05 0)
(505.141 4.99104e-05 0)
(505.154 2.47444e-05 0)
(505.164 8.6765e-05 0)
(505.171 0.00011011 0)
(505.176 2.34413e-05 0)
(505.179 -8.30972e-05 0)
(505.182 -0.00018251 0)
(505.185 -0.000274707 0)
(505.187 -0.000203319 0)
(505.19 3.49889e-05 0)
(505.194 0.000179179 0)
(505.198 0.00025855 0)
(505.203 0.000262988 0)
(505.206 8.84912e-05 0)
(505.206 -9.31626e-05 0)
(505.206 -0.000132983 0)
(505.206 -0.000147548 0)
(505.204 3.18029e-05 0)
(505.201 8.94917e-05 0)
(505.197 6.2769e-05 0)
(505.191 -5.21814e-06 0)
(505.184 -8.10423e-05 0)
(505.176 -0.000116174 0)
(505.169 -8.11037e-05 0)
(505.163 1.48212e-05 0)
(505.158 9.89836e-05 0)
(505.155 9.02362e-05 0)
(505.153 -1.06576e-05 0)
(505.151 -2.0565e-05 0)
(505.149 -1.09283e-05 0)
(505.148 7.16218e-07 0)
(505.146 1.7058e-05 0)
(505.144 1.44348e-05 0)
(505.143 2.81159e-07 0)
(505.141 4.18198e-06 0)
(505.139 1.85042e-05 0)
(505.137 5.36918e-05 0)
(505.133 0.000121926 0)
(505.13 0.000239796 0)
(505.126 0.000281505 0)
(505.119 0.000215751 0)
(505.111 0.000102333 0)
(505.102 -0.000195518 0)
(505.097 -0.000348856 0)
(505.096 -0.000394482 0)
(505.097 -0.000312114 0)
(505.099 -0.000196677 0)
(505.104 -9.10681e-05 0)
(505.113 1.99904e-05 0)
(505.126 -1.97591e-06 0)
(505.141 -0.000256915 0)
(505.155 9.3786e-05 0)
(505.166 0.000473219 0)
(505.174 0.000549233 0)
(505.179 0.000528703 0)
(505.183 0.000312339 0)
(505.187 6.18014e-05 0)
(505.19 -1.5306e-05 0)
(505.194 -9.71917e-05 0)
(505.198 -0.000243821 0)
(505.202 -0.000360397 0)
(505.206 -0.000483285 0)
(505.21 -0.000630992 0)
(505.213 -0.000536477 0)
(505.214 -0.000409598 0)
(505.214 -0.000163207 0)
(505.214 0.0001329 0)
(505.213 0.000445961 0)
(505.21 0.000737451 0)
(505.206 0.000958673 0)
(505.201 0.000928701 0)
(505.195 0.00057293 0)
(505.187 0.000113828 0)
(505.179 -0.000121058 0)
(505.172 -0.000236682 0)
(505.166 -0.00039678 0)
(505.16 -0.000543093 0)
(505.155 -0.000636855 0)
(505.151 -0.000716777 0)
(505.148 -0.000771406 0)
(505.144 -0.00060212 0)
(505.141 -0.000109754 0)
(505.138 0.000409372 0)
(505.135 0.000925833 0)
(505.133 0.00138524 0)
(505.13 0.00128154 0)
(505.127 0.000755833 0)
(505.123 0.000299847 0)
(505.118 1.11586e-05 0)
(505.111 -0.000149119 0)
(505.101 -0.00029076 0)
(505.089 -0.000599724 0)
(505.079 -0.000904494 0)
(505.075 -0.00113604 0)
(505.075 -0.00094723 0)
(505.076 -0.000609739 0)
(505.081 -0.000266836 0)
(505.092 0.000288163 0)
(505.108 0.000566929 0)
(505.128 0.000657776 0)
(505.149 0.00116027 0)
(505.164 0.000955831 0)
(505.179 0.00039622 0)
(500 -2.05929e-14 0)
(500 -1.79627e-14 0)
(500 3.0401e-14 0)
(500 -2.08601e-14 0)
(500 -8.6368e-14 0)
(500 -1.06505e-13 0)
(500 -1.8507e-13 0)
(500 -1.58172e-13 0)
(500 -8.753e-14 0)
(500 -7.53492e-14 0)
(500 1.14374e-13 0)
(500 -4.8384e-14 0)
(500 -1.44982e-13 0)
(500 1.84258e-14 0)
(500 -2.38846e-14 0)
(500 3.25016e-13 0)
(500 2.60731e-13 0)
(500 1.45109e-13 0)
(500 1.36987e-13 0)
(500 2.21898e-13 0)
(500 1.03496e-13 0)
(500 3.37629e-13 0)
(500 3.42344e-13 0)
(500 2.45332e-13 0)
(500 6.68888e-14 0)
(500 -1.47882e-12 0)
(500 9.7077e-12 0)
(500 -3.71014e-11 0)
(500 2.90827e-11 0)
(500 7.36188e-10 0)
(500 -5.87325e-09 0)
(500 2.65475e-08 0)
(500 -7.76161e-08 0)
(500 1.02896e-07 0)
(499.999 2.60047e-07 0)
(499.998 -1.95013e-06 0)
(499.995 5.72016e-06 0)
(499.986 -7.19547e-06 0)
(499.964 -9.04952e-06 0)
(499.914 6.32657e-05 0)
(499.809 -0.000106227 0)
(499.62 -3.68588e-05 0)
(499.37 0.000494934 0)
(499.201 -0.000592602 0)
(499.178 -4.61385e-06 0)
(499.194 4.81023e-05 0)
(499.266 -9.60273e-05 0)
(499.439 0.000498857 0)
(499.732 0.000590404 0)
(500.137 -0.00264614 0)
(500.623 0.000856809 0)
(501.15 0.00600598 0)
(501.693 -0.00365812 0)
(502.219 -0.00922869 0)
(502.71 0.00623362 0)
(503.154 0.0110384 0)
(503.551 -0.00490722 0)
(503.882 -0.0123575 0)
(504.152 0.00256315 0)
(504.362 0.011261 0)
(504.533 0.00318583 0)
(504.668 -0.00689275 0)
(504.776 -0.00696465 0)
(504.867 0.00193568 0)
(504.945 0.00634183 0)
(505.017 0.00284936 0)
(505.08 -0.00284119 0)
(505.135 -0.00445549 0)
(505.186 -0.000516142 0)
(505.232 0.00345688 0)
(505.274 0.00238234 0)
(505.305 -0.000693992 0)
(505.315 -0.00187087 0)
(505.316 -0.00138814 0)
(505.316 6.59962e-05 0)
(505.315 0.00103243 0)
(505.311 0.00101577 0)
(505.303 0.000222213 0)
(505.291 -0.000838103 0)
(505.274 -0.00100578 0)
(505.252 -8.78745e-05 0)
(505.23 0.00104366 0)
(505.208 0.000594623 0)
(505.19 -0.000661226 0)
(505.176 -0.000652283 0)
(505.164 0.00015709 0)
(505.155 0.00055954 0)
(505.147 0.000207922 0)
(505.139 -0.000415311 0)
(505.133 -0.000420413 0)
(505.128 -1.27403e-05 0)
(505.123 0.000384106 0)
(505.12 0.000285798 0)
(505.118 -0.000156552 0)
(505.116 -0.000312692 0)
(505.113 -0.00029601 0)
(505.111 -0.000133999 0)
(505.109 0.000116663 0)
(505.109 0.000153173 0)
(505.109 0.000108339 0)
(505.11 1.41571e-05 0)
(505.111 -2.34392e-05 0)
(505.113 7.27363e-06 0)
(505.117 6.6809e-05 0)
(505.122 3.1066e-05 0)
(505.129 2.48605e-05 0)
(505.138 -1.86333e-05 0)
(505.148 -0.000234553 0)
(505.157 -0.000213182 0)
(505.167 0.000150827 0)
(505.175 0.000246236 0)
(505.182 -5.39219e-05 0)
(505.189 -0.000184131 0)
(505.195 0.000183086 0)
(505.2 0.000260137 0)
(505.203 0.000214209 0)
(505.204 -9.8265e-06 0)
(505.204 -0.000203345 0)
(505.204 -0.000206751 0)
(505.203 -7.79051e-05 0)
(505.201 -1.20177e-05 0)
(505.197 3.02061e-06 0)
(505.192 1.35731e-05 0)
(505.186 -0.00011275 0)
(505.179 -0.000198987 0)
(505.172 7.66078e-05 0)
(505.166 0.000234868 0)
(505.162 9.02424e-05 0)
(505.158 -5.06705e-05 0)
(505.155 -5.41069e-05 0)
(505.152 8.18088e-06 0)
(505.149 8.32224e-05 0)
(505.147 6.16872e-05 0)
(505.145 -5.35525e-06 0)
(505.143 -5.62947e-05 0)
(505.141 -5.83121e-05 0)
(505.139 -1.59056e-06 0)
(505.137 2.91104e-05 0)
(505.133 -1.42047e-06 0)
(505.129 -3.67381e-05 0)
(505.123 -8.07563e-05 0)
(505.116 -0.000139363 0)
(505.112 -8.4216e-05 0)
(505.112 -1.67133e-05 0)
(505.112 -1.04937e-06 0)
(505.113 4.03748e-05 0)
(505.116 7.8802e-05 0)
(505.122 2.32096e-05 0)
(505.13 0.000113032 0)
(505.141 0.000213222 0)
(505.152 4.83635e-05 0)
(505.161 3.77311e-05 0)
(505.168 6.76926e-05 0)
(505.172 5.09281e-05 0)
(505.176 -3.71066e-05 0)
(505.18 -0.000126103 0)
(505.184 -0.000237364 0)
(505.188 -0.00022182 0)
(505.193 -0.000136076 0)
(505.197 -5.40805e-05 0)
(505.2 -4.12663e-05 0)
(505.201 -5.34204e-05 0)
(505.201 2.61835e-06 0)
(505.201 0.000107827 0)
(505.201 0.000171285 0)
(505.199 0.000202309 0)
(505.196 0.000185877 0)
(505.192 0.000126116 0)
(505.187 1.85661e-05 0)
(505.181 -2.28099e-05 0)
(505.175 -7.03049e-05 0)
(505.169 -9.20405e-05 0)
(505.164 -0.000109332 0)
(505.159 -0.000164617 0)
(505.155 -0.000236855 0)
(505.152 -0.000282128 0)
(505.15 -0.000305997 0)
(505.148 -0.000201569 0)
(505.147 4.86261e-05 0)
(505.145 0.000233588 0)
(505.144 0.000316787 0)
(505.143 0.000305053 0)
(505.142 0.000163434 0)
(505.141 6.15135e-05 0)
(505.139 4.97907e-05 0)
(505.136 3.10771e-05 0)
(505.133 -1.3231e-05 0)
(505.128 -7.47905e-05 0)
(505.121 -0.0001194 0)
(505.113 -0.000187098 0)
(505.108 -0.000174195 0)
(505.106 -0.000126477 0)
(505.107 -6.88141e-05 0)
(505.108 2.92251e-05 0)
(505.112 0.000169854 0)
(505.118 0.000158444 0)
(505.128 0.000121077 0)
(505.141 0.000144289 0)
(505.154 4.85573e-06 0)
(505.164 -6.16349e-05 0)
(505.171 7.13119e-05 0)
(505.176 4.53926e-05 0)
(505.179 -7.52162e-05 0)
(505.182 -0.000186203 0)
(505.184 -0.000282016 0)
(505.187 -0.000277109 0)
(505.191 -0.000108242 0)
(505.194 0.000172463 0)
(505.198 0.000304488 0)
(505.203 0.000270428 0)
(505.205 0.000133148 0)
(505.206 -3.23023e-05 0)
(505.206 -6.97627e-05 0)
(505.206 -7.14785e-05 0)
(505.204 -3.3355e-05 0)
(505.201 5.68953e-05 0)
(505.197 6.10691e-05 0)
(505.191 2.82424e-05 0)
(505.184 -6.33373e-05 0)
(505.176 -0.000146881 0)
(505.169 -0.000110387 0)
(505.163 1.55379e-05 0)
(505.158 0.000125233 0)
(505.155 0.000137623 0)
(505.153 2.22387e-05 0)
(505.151 -1.22352e-05 0)
(505.149 -1.24646e-05 0)
(505.148 -2.93448e-05 0)
(505.146 -7.25515e-05 0)
(505.144 -7.69003e-05 0)
(505.143 -4.82126e-05 0)
(505.141 -4.78767e-05 0)
(505.139 -5.36168e-05 0)
(505.137 -7.3587e-05 0)
(505.134 2.40303e-06 0)
(505.13 0.000258928 0)
(505.126 0.00036328 0)
(505.119 0.000393327 0)
(505.111 0.000278747 0)
(505.102 5.64778e-05 0)
(505.097 -0.000299833 0)
(505.096 -0.000436363 0)
(505.097 -0.000423482 0)
(505.099 -0.000348752 0)
(505.104 -0.000236888 0)
(505.113 -5.41185e-05 0)
(505.126 -8.0785e-05 0)
(505.141 -0.00019217 0)
(505.155 7.08016e-07 0)
(505.166 0.000530737 0)
(505.174 0.000615688 0)
(505.179 0.000558217 0)
(505.183 0.000412967 0)
(505.186 0.000270265 0)
(505.19 0.000162183 0)
(505.194 -1.02421e-05 0)
(505.198 -0.000294468 0)
(505.202 -0.000560217 0)
(505.206 -0.000689292 0)
(505.21 -0.000725237 0)
(505.213 -0.000718416 0)
(505.214 -0.000618769 0)
(505.215 -0.000402967 0)
(505.214 -4.2798e-06 0)
(505.213 0.000516743 0)
(505.211 0.000922517 0)
(505.207 0.00106347 0)
(505.201 0.00101839 0)
(505.194 0.000789115 0)
(505.187 0.000265814 0)
(505.179 -0.000259702 0)
(505.172 -0.000468601 0)
(505.165 -0.000620393 0)
(505.16 -0.000713095 0)
(505.155 -0.000779494 0)
(505.151 -0.000885825 0)
(505.148 -0.000949837 0)
(505.145 -0.000754625 0)
(505.142 -0.000310546 0)
(505.139 0.00036716 0)
(505.136 0.00103727 0)
(505.133 0.00132934 0)
(505.13 0.00127826 0)
(505.126 0.00101607 0)
(505.123 0.000542349 0)
(505.118 0.000123596 0)
(505.111 -0.00016826 0)
(505.101 -0.000472805 0)
(505.089 -0.000771152 0)
(505.078 -0.0010559 0)
(505.075 -0.00120296 0)
(505.075 -0.00111416 0)
(505.076 -0.000918903 0)
(505.082 -0.000337687 0)
(505.092 0.000413349 0)
(505.109 0.000575689 0)
(505.129 0.000752876 0)
(505.149 0.00137305 0)
(505.164 0.000950367 0)
(505.179 0.000365574 0)
(500 4.444e-14 0)
(500 -4.56652e-14 0)
(500 5.18353e-14 0)
(500 2.53945e-15 0)
(500 7.08706e-14 0)
(500 -2.33344e-14 0)
(500 -1.22638e-13 0)
(500 -1.8562e-13 0)
(500 -7.52858e-14 0)
(500 -1.01782e-13 0)
(500 5.83459e-14 0)
(500 6.94236e-14 0)
(500 -7.27001e-14 0)
(500 6.98798e-14 0)
(500 7.54391e-14 0)
(500 1.7807e-13 0)
(500 1.32358e-13 0)
(500 2.57678e-13 0)
(500 2.78041e-13 0)
(500 3.23525e-13 0)
(500 2.55172e-13 0)
(500 3.44067e-13 0)
(500 4.64566e-13 0)
(500 3.39481e-13 0)
(500 2.71428e-13 0)
(500 -2.0219e-12 0)
(500 1.31605e-11 0)
(500 -5.28442e-11 0)
(500 6.36294e-11 0)
(500 8.27158e-10 0)
(500 -7.16562e-09 0)
(500 3.34761e-08 0)
(500 -9.92034e-08 0)
(500 1.43378e-07 0)
(499.999 2.67455e-07 0)
(499.998 -2.32555e-06 0)
(499.995 6.96747e-06 0)
(499.986 -9.18834e-06 0)
(499.964 -1.00299e-05 0)
(499.914 7.34343e-05 0)
(499.809 -0.000121365 0)
(499.62 -7.43832e-05 0)
(499.37 0.000660787 0)
(499.201 -0.000760233 0)
(499.178 -1.8038e-05 0)
(499.194 4.00847e-05 0)
(499.266 -6.62193e-05 0)
(499.439 0.000772605 0)
(499.732 -2.58897e-05 0)
(500.137 -0.00294154 0)
(500.622 0.00315909 0)
(501.151 0.0051719 0)
(501.693 -0.00760786 0)
(502.219 -0.00704978 0)
(502.707 0.0108483 0)
(503.155 0.00820862 0)
(503.551 -0.0102172 0)
(503.882 -0.0105531 0)
(504.15 0.00767214 0)
(504.361 0.0106084 0)
(504.534 -0.000290621 0)
(504.668 -0.00874873 0)
(504.776 -0.00511438 0)
(504.866 0.00460984 0)
(504.944 0.00599628 0)
(505.017 0.00102714 0)
(505.08 -0.00407686 0)
(505.135 -0.00402532 0)
(505.186 0.00113864 0)
(505.232 0.00369336 0)
(505.275 0.00162191 0)
(505.305 -0.00131291 0)
(505.315 -0.00199955 0)
(505.316 -0.00116 0)
(505.316 0.000519129 0)
(505.315 0.0012164 0)
(505.311 0.00104103 0)
(505.304 -6.16702e-06 0)
(505.291 -0.000911449 0)
(505.274 -0.000853711 0)
(505.252 0.000187182 0)
(505.23 0.00115077 0)
(505.209 0.000357853 0)
(505.191 -0.000686773 0)
(505.176 -0.00040456 0)
(505.164 0.000305388 0)
(505.155 0.000560945 0)
(505.147 -3.30935e-05 0)
(505.14 -0.000436423 0)
(505.133 -0.000338214 0)
(505.128 2.86463e-05 0)
(505.123 0.000291383 0)
(505.12 0.000170719 0)
(505.118 -0.000166211 0)
(505.116 -0.000276774 0)
(505.113 -0.000243336 0)
(505.111 -4.80594e-05 0)
(505.11 0.000136328 0)
(505.109 0.000126808 0)
(505.109 8.03186e-05 0)
(505.11 1.93388e-05 0)
(505.111 9.70328e-06 0)
(505.113 4.15278e-05 0)
(505.117 7.31306e-05 0)
(505.122 1.4504e-05 0)
(505.129 2.63989e-05 0)
(505.138 -7.0366e-05 0)
(505.148 -0.000301373 0)
(505.157 -0.000156818 0)
(505.167 0.000209472 0)
(505.175 0.000201882 0)
(505.182 -0.000115098 0)
(505.189 -0.000139122 0)
(505.195 0.000239431 0)
(505.2 0.000231766 0)
(505.203 0.000175052 0)
(505.204 -3.0991e-05 0)
(505.204 -0.000209024 0)
(505.204 -0.000204702 0)
(505.203 -0.000100106 0)
(505.201 -5.48529e-05 0)
(505.197 -4.34485e-05 0)
(505.192 -3.2212e-05 0)
(505.186 -0.000130373 0)
(505.179 -0.000111334 0)
(505.172 0.000159163 0)
(505.166 0.000218955 0)
(505.162 4.7752e-05 0)
(505.158 -5.75767e-05 0)
(505.155 -4.94039e-05 0)
(505.152 9.7497e-06 0)
(505.15 5.95049e-05 0)
(505.147 2.2578e-05 0)
(505.145 -3.46402e-05 0)
(505.143 -6.77132e-05 0)
(505.141 -3.6173e-05 0)
(505.139 6.16999e-05 0)
(505.137 8.89142e-05 0)
(505.133 4.28429e-05 0)
(505.129 -2.0391e-05 0)
(505.123 -7.99255e-05 0)
(505.116 -0.000150976 0)
(505.112 -0.000102934 0)
(505.112 -4.6757e-05 0)
(505.112 -2.2155e-05 0)
(505.113 3.89031e-05 0)
(505.116 7.37059e-05 0)
(505.122 8.48079e-06 0)
(505.13 9.92739e-05 0)
(505.141 0.000146707 0)
(505.152 -2.92711e-05 0)
(505.161 5.13911e-05 0)
(505.167 0.000164875 0)
(505.172 0.000157779 0)
(505.176 3.85181e-05 0)
(505.18 -9.4121e-05 0)
(505.184 -0.000219773 0)
(505.188 -0.000236436 0)
(505.193 -0.0001488 0)
(505.197 -3.57529e-05 0)
(505.2 -2.47104e-05 0)
(505.201 -4.02672e-05 0)
(505.202 1.17738e-07 0)
(505.201 7.93748e-05 0)
(505.201 0.000139927 0)
(505.199 0.000185763 0)
(505.196 0.000173296 0)
(505.192 0.000133985 0)
(505.187 4.35741e-05 0)
(505.181 -4.86831e-05 0)
(505.175 -9.00863e-05 0)
(505.169 -0.000112936 0)
(505.164 -0.000134848 0)
(505.159 -0.000190304 0)
(505.155 -0.000221225 0)
(505.152 -0.000223097 0)
(505.15 -0.000196442 0)
(505.149 -2.33504e-05 0)
(505.147 0.000131998 0)
(505.146 0.0001891 0)
(505.144 0.00026258 0)
(505.143 0.000280791 0)
(505.142 0.000236408 0)
(505.14 8.36172e-05 0)
(505.139 -2.52487e-06 0)
(505.136 -4.7832e-05 0)
(505.133 -9.80076e-05 0)
(505.128 -0.000111958 0)
(505.121 -0.000141754 0)
(505.113 -0.000163248 0)
(505.108 -0.00012793 0)
(505.107 -9.22554e-05 0)
(505.107 -7.73773e-05 0)
(505.108 8.58679e-05 0)
(505.112 0.000238509 0)
(505.118 0.000225511 0)
(505.128 0.000183213 0)
(505.141 0.000274262 0)
(505.154 -3.21375e-06 0)
(505.164 -0.00026103 0)
(505.171 -0.000121507 0)
(505.176 -6.01201e-05 0)
(505.179 -9.55203e-05 0)
(505.182 -0.000157145 0)
(505.184 -0.000223635 0)
(505.187 -0.000191082 0)
(505.191 -8.71824e-05 0)
(505.195 0.000155736 0)
(505.199 0.000349138 0)
(505.203 0.000320718 0)
(505.205 0.000240477 0)
(505.206 6.42571e-05 0)
(505.206 -6.37482e-05 0)
(505.206 -9.69537e-05 0)
(505.204 -0.000121242 0)
(505.201 -9.76922e-05 0)
(505.197 -8.43114e-05 0)
(505.191 -9.02855e-05 0)
(505.184 -0.000129657 0)
(505.176 -0.000164868 0)
(505.169 -0.000103715 0)
(505.163 3.99421e-05 0)
(505.158 0.000171373 0)
(505.155 0.000225898 0)
(505.153 0.00017782 0)
(505.151 7.80446e-05 0)
(505.149 1.83195e-05 0)
(505.147 -7.40279e-05 0)
(505.146 -0.000180178 0)
(505.144 -0.00023719 0)
(505.143 -0.000189265 0)
(505.141 -0.000137758 0)
(505.139 -0.000107215 0)
(505.137 -6.7676e-05 0)
(505.134 7.55116e-05 0)
(505.131 0.000349969 0)
(505.126 0.000338644 0)
(505.119 0.000372238 0)
(505.11 0.000333296 0)
(505.101 0.000244307 0)
(505.096 3.22684e-06 0)
(505.096 -0.000315343 0)
(505.097 -0.000419363 0)
(505.099 -0.000406119 0)
(505.104 -0.000355558 0)
(505.113 -0.000167655 0)
(505.126 -0.000117897 0)
(505.141 -0.000230005 0)
(505.155 -1.61022e-05 0)
(505.166 0.000444313 0)
(505.174 0.000572588 0)
(505.179 0.000543306 0)
(505.183 0.0004871 0)
(505.186 0.000510764 0)
(505.189 0.000368815 0)
(505.193 5.65316e-05 0)
(505.197 -0.000321059 0)
(505.202 -0.00071359 0)
(505.206 -0.00094286 0)
(505.21 -0.000746406 0)
(505.213 -0.000638819 0)
(505.214 -0.000477899 0)
(505.215 -0.000222333 0)
(505.215 0.00020827 0)
(505.214 0.000596062 0)
(505.211 0.000864351 0)
(505.207 0.00105653 0)
(505.201 0.00105437 0)
(505.194 0.000893139 0)
(505.186 0.000521386 0)
(505.178 -5.78289e-05 0)
(505.171 -0.000569703 0)
(505.165 -0.000800658 0)
(505.16 -0.0008679 0)
(505.155 -0.000892578 0)
(505.151 -0.000895269 0)
(505.148 -0.000822654 0)
(505.146 -0.000454158 0)
(505.143 6.42149e-05 0)
(505.14 0.000475703 0)
(505.137 0.000816394 0)
(505.133 0.00109249 0)
(505.13 0.00114484 0)
(505.126 0.00112073 0)
(505.122 0.000873509 0)
(505.117 0.000235366 0)
(505.11 -0.000373472 0)
(505.101 -0.000598684 0)
(505.089 -0.000758667 0)
(505.078 -0.00112465 0)
(505.075 -0.0011578 0)
(505.075 -0.00104924 0)
(505.077 -0.000649051 0)
(505.083 0.0002086 0)
(505.093 0.000482233 0)
(505.109 0.000638258 0)
(505.129 0.000723424 0)
(505.149 0.00120305 0)
(505.164 0.000891448 0)
(505.178 0.000280957 0)
(500 1.05244e-13 0)
(500 8.60913e-14 0)
(500 9.7183e-14 0)
(500 5.44228e-14 0)
(500 1.0775e-14 0)
(500 -2.39164e-13 0)
(500 -8.33905e-14 0)
(500 -2.89099e-14 0)
(500 -2.29538e-14 0)
(500 -4.11019e-14 0)
(500 -4.23771e-14 0)
(500 6.85946e-14 0)
(500 9.78201e-14 0)
(500 8.31514e-14 0)
(500 1.6328e-13 0)
(500 2.70348e-14 0)
(500 -2.35324e-14 0)
(500 2.76973e-13 0)
(500 4.96543e-13 0)
(500 4.92858e-13 0)
(500 5.89298e-13 0)
(500 6.44079e-13 0)
(500 5.98995e-13 0)
(500 2.1153e-13 0)
(500 2.438e-13 0)
(500 -2.65099e-12 0)
(500 1.6183e-11 0)
(500 -6.83874e-11 0)
(500 1.05813e-10 0)
(500 8.26749e-10 0)
(500 -7.87265e-09 0)