/*--------------------------------*- C++ -*----------------------------------*\
| =========                 |                                                 |
| \\      /  F ield         | OpenFOAM: The Open Source CFD Toolbox           |
|  \\    /   O peration     | Version:  2306                                  |
|   \\  /    A nd           | Website:  www.openfoam.com                      |
|    \\/     M anipulation  |                                                 |
\*---------------------------------------------------------------------------*/
FoamFile
{
    version     2.0;
    format      ascii;
    arch        "LSB;label=32;scalar=64";
    class       volVectorField;
    location    "0.08";
    object      U;
}
// * * * * * * * * * * * * * * * * * * * * * * * * * * * * * * * * * * * * * //

dimensions      [0 1 -1 0 0 0 0];

internalField   nonuniform List<vector> 
6000
(
(-2430.27 -0.128736 0)
(-861.784 -16.2151 0)
(-296.838 -3.0422 0)
(-266.629 3.00283 0)
(-127.594 0.301707 0)
(28.6925 -0.53635 0)
(197.168 -0.714117 0)
(315.224 -0.40902 0)
(346.717 -0.107311 0)
(352.022 0.14136 0)
(351.66 0.20952 0)
(346.527 0.0225893 0)
(332.093 -0.309889 0)
(255.898 -0.621189 0)
(-16.869 -0.875634 0)
(-205.849 -0.995479 0)
(-206.078 -1.08576 0)
(-177.989 -1.06715 0)
(-130.286 -1.01447 0)
(-81.23 -1.02353 0)
(-36.1729 -1.02684 0)
(6.24554 -1.01407 0)
(47.8023 -0.942409 0)
(89.6118 -0.881144 0)
(132.555 -0.800149 0)
(177.903 -0.64506 0)
(228.195 -0.243446 0)
(284.231 0.25656 0)
(331.718 0.683904 0)
(347.162 0.801907 0)
(344.804 0.684241 0)
(293.375 0.619037 0)
(76.7827 0.66841 0)
(-97.9302 0.584518 0)
(-104.945 0.547793 0)
(-87.4021 0.542339 0)
(-51.9865 0.57646 0)
(-17.233 0.625664 0)
(9.61493 0.683861 0)
(31.808 0.791662 0)
(53.0528 0.908581 0)
(75.104 1.03872 0)
(98.0797 1.17241 0)
(121.11 1.31005 0)
(143.397 1.45335 0)
(165.987 1.60233 0)
(193.913 1.73356 0)
(237.36 1.79134 0)
(293.238 1.70969 0)
(314.533 1.54303 0)
(308.363 1.35004 0)
(241.503 0.934586 0)
(54.6417 0.402735 0)
(-30.1566 0.110881 0)
(-29.1008 -0.0831566 0)
(-13.3613 -0.290468 0)
(15.5745 -0.525903 0)
(41.9185 -0.827064 0)
(59.9762 -1.17472 0)
(73.9535 -1.52172 0)
(87.7653 -1.84025 0)
(103.05 -2.10637 0)
(119.37 -2.3394 0)
(134.973 -2.60224 0)
(148.929 -2.86908 0)
(162.74 -3.06403 0)
(181.124 -3.12016 0)
(211.997 -2.95572 0)
(252.35 -2.40635 0)
(267.984 -1.488 0)
(264.276 -0.684413 0)
(219.798 0.00299374 0)
(87.4379 0.227228 0)
(6.15454 0.467145 0)
(1.65278 0.642924 0)
(9.9475 0.773912 0)
(30.1314 0.847676 0)
(53.8301 0.88241 0)
(70.5907 0.907395 0)
(81.1101 0.893592 0)
(89.9368 0.826574 0)
(99.8381 0.690657 0)
(111.861 0.447123 0)
(125.15 0.0879759 0)
(137.692 -0.335651 0)
(148.563 -0.656113 0)
(159.512 -0.85058 0)
(175.839 -1.02321 0)
(204.368 -1.24204 0)
(234.818 -1.41385 0)
(247.786 -1.40087 0)
(239.178 -1.28496 0)
(195.458 -0.990463 0)
(88.2471 -0.681597 0)
(30.5341 -0.299159 0)
(23.8331 0.122394 0)
(32.4239 0.472433 0)
(52.6899 0.768862 0)
(74.3796 0.947632 0)
(89.0337 1.03535 0)
(96.9268 1.0704 0)
(102.806 1.07957 0)
(110.176 1.03829 0)
(120.28 0.914767 0)
(131.823 0.687121 0)
(142.548 0.340647 0)
(152.604 -0.0726815 0)
(166.354 -0.457763 0)
(192.768 -0.753395 0)
(220.676 -0.914096 0)
(226.348 -1.02884 0)
(206.35 -1.06654 0)
(138.549 -0.898623 0)
(62.6759 -0.606621 0)
(46.8062 -0.243239 0)
(49.7262 0.13213 0)
(66.7218 0.457326 0)
(89.8662 0.618664 0)
(107.467 0.694856 0)
(116.125 0.702043 0)
(120.436 0.586089 0)
(124.903 0.34472 0)
(131.176 0.00295953 0)
(138.941 -0.322759 0)
(148.775 -0.511109 0)
(163.691 -0.623164 0)
(184.481 -0.637343 0)
(196.856 -0.34648 0)
(183.58 0.0241845 0)
(142.373 0.380077 0)
(86.8955 0.60201 0)
(61.147 0.672939 0)
(63.1279 0.629048 0)
(81.774 0.519451 0)
(105.723 0.32339 0)
(122.429 -0.0486753 0)
(129.694 -0.493922 0)
(133.009 -0.802526 0)
(138.742 -0.922571 0)
(152.919 -1.06994 0)
(176.58 -1.22062 0)
(191.472 -1.23984 0)
(183.981 -1.03118 0)
(150.307 -0.612545 0)
(110.203 -0.102247 0)
(91.4979 0.611565 0)
(97.036 0.99275 0)
(113.016 1.36106 0)
(128.78 1.44551 0)
(144.72 1.28643 0)
(159.121 1.03245 0)
(153.571 0.740799 0)
(131.358 0.510805 0)
(111.597 0.164012 0)
(109.042 -0.0381745 0)
(123.806 -0.283471 0)
(140.988 -0.494138 0)
(142.362 -0.48172 0)
(135.823 -0.461271 0)
(126.75 -0.426366 0)
(124.489 -0.440418 0)
(128.089 -0.439165 0)
(135.372 -0.404552 0)
(138.109 -0.247835 0)
(136.469 -0.0941688 0)
(132.79 0.0231769 0)
(131.134 0.00542519 0)
(131.685 -0.0525314 0)
(133.523 -0.0956033 0)
(134.261 -0.0909224 0)
(133.781 -0.0559191 0)
(132.353 0.00172359 0)
(131.627 0.0242999 0)
(131.772 0.0196941 0)
(132.448 -0.00379508 0)
(132.913 -0.018692 0)
(132.768 -0.0186057 0)
(132.19 -0.00160735 0)
(131.615 0.0216178 0)
(131.524 0.0286507 0)
(131.822 0.0294297 0)
(132.443 0.0223139 0)
(132.784 0.0118694 0)
(132.751 0.00484688 0)
(132.581 -0.00211378 0)
(132.415 -0.00657384 0)
(132.375 -0.00894289 0)
(132.394 -0.0105363 0)
(132.414 -0.0115914 0)
(132.371 -0.0115251 0)
(132.261 -0.0101336 0)
(132.076 -0.00704101 0)
(131.897 -0.00254576 0)
(131.779 0.00325764 0)
(131.698 0.00934186 0)
(131.634 0.0162448 0)
(131.595 0.0238753 0)
(131.588 0.0294755 0)
(131.629 0.0340035 0)
(131.718 0.0364513 0)
(131.773 0.0376693 0)
(131.759 0.0384455 0)
(131.694 0.0396855 0)
(131.584 0.0411809 0)
(131.456 0.0424049 0)
(131.375 0.0427073 0)
(131.337 0.0412801 0)
(131.32 0.0392738 0)
(131.303 0.0379386 0)
(131.278 0.0367392 0)
(131.237 0.0370693 0)
(131.186 0.039118 0)
(131.124 0.0420263 0)
(131.055 0.0452333 0)
(130.999 0.0480753 0)
(130.966 0.0495174 0)
(130.956 0.0496712 0)
(130.963 0.0485515 0)
(130.992 0.0452415 0)
(131.027 0.0403608 0)
(131.047 0.0360642 0)
(131.046 0.0334535 0)
(131.038 0.0317869 0)
(131.026 0.0295352 0)
(131.006 0.0273895 0)
(130.973 0.0257056 0)
(130.923 0.024623 0)
(130.848 0.0241814 0)
(130.743 0.0245086 0)
(130.598 0.0254528 0)
(130.397 0.0264063 0)
(130.119 0.0265336 0)
(129.801 0.0249205 0)
(129.58 0.0216779 0)
(129.506 0.015867 0)
(129.424 0.0104863 0)
(129.329 0.00348504 0)
(129.252 -0.00298584 0)
(129.223 -0.00869589 0)
(129.287 -0.0126503 0)
(129.475 -0.017757 0)
(129.799 -0.0237161 0)
(130.192 -0.0286659 0)
(130.507 -0.0345074 0)
(130.623 -0.0398597 0)
(130.62 -0.0430048 0)
(130.575 -0.0474578 0)
(130.491 -0.0529203 0)
(130.317 -0.054851 0)
(129.995 -0.0528272 0)
(129.545 -0.0494605 0)
(129.178 -0.0458581 0)
(129.089 -0.0419296 0)
(129.14 -0.0394539 0)
(129.232 -0.0366498 0)
(129.401 -0.0345666 0)
(129.611 -0.0325911 0)
(129.867 -0.0314241 0)
(130.144 -0.0317681 0)
(130.335 -0.0288147 0)
(130.375 -0.0256306 0)
(130.409 -0.0199835 0)
(130.427 -0.0154711 0)
(130.386 -0.00755154 0)
(130.228 -0.00650633 0)
(129.904 -0.00843145 0)
(129.392 -0.00724138 0)
(128.819 -0.0151599 0)
(128.281 -0.00929148 0)
(127.955 0.0394131 0)
(127.804 0.0676259 0)
(127.816 0.100556 0)
(128 0.103939 0)
(128.233 0.111975 0)
(128.451 0.12831 0)
(128.635 0.139488 0)
(128.782 0.14821 0)
(128.911 0.152802 0)
(129.076 0.154163 0)
(129.298 0.154059 0)
(129.564 0.15593 0)
(129.808 0.153546 0)
(129.984 0.154541 0)
(130.046 0.154593 0)
(130.07 0.15042 0)
(130.031 0.146325 0)
(129.892 0.140722 0)
(129.611 0.134935 0)
(129.196 0.13046 0)
(128.788 0.123847 0)
(128.606 0.115114 0)
(128.55 0.107385 0)
(128.531 0.0994495 0)
(128.556 0.0868988 0)
(128.661 0.0690879 0)
(128.874 0.0388016 0)
(129.22 0.00745672 0)
(129.662 -0.0423616 0)
(130.126 -0.0862614 0)
(130.555 -0.102346 0)
(-2431.34 0.221609 0)
(-732.887 -42.012 0)
(-291.206 -2.54309 0)
(-269.474 0.156666 0)
(-128.515 -0.743236 0)
(27.7351 -0.958422 0)
(197.091 -0.844405 0)
(315.304 -0.140167 0)
(346.604 0.176899 0)
(351.957 0.379922 0)
(351.801 0.233779 0)
(347.014 -0.311019 0)
(332.908 -1.15925 0)
(256.964 -1.71218 0)
(-16.3152 -1.87238 0)
(-206.161 -2.18053 0)
(-206.635 -2.34502 0)
(-178.708 -2.52067 0)
(-131.095 -2.72382 0)
(-82.1235 -2.98257 0)
(-37.158 -3.16033 0)
(5.17868 -3.29447 0)
(46.7158 -3.29615 0)
(88.6222 -3.26609 0)
(131.83 -3.08875 0)
(177.621 -2.73015 0)
(228.358 -2.2601 0)
(284.668 -1.7663 0)
(332.671 -1.12106 0)
(348.634 -0.133754 0)
(346.68 0.555638 0)
(295.296 1.17564 0)
(77.7965 1.24886 0)
(-97.505 0.895508 0)
(-104.443 0.814446 0)
(-86.8525 0.800388 0)
(-51.4716 0.896646 0)
(-16.8094 1.02051 0)
(9.9825 1.10459 0)
(32.2038 1.2009 0)
(53.55 1.27221 0)
(75.7259 1.40361 0)
(98.8281 1.6105 0)
(121.992 1.91294 0)
(144.41 2.31289 0)
(167.095 2.8483 0)
(195.054 3.49473 0)
(238.453 4.25065 0)
(294.016 4.97742 0)
(314.926 5.06823 0)
(308.669 4.8585 0)
(240.78 4.26108 0)
(53.4213 2.91923 0)
(-30.4411 2.09682 0)
(-29.292 1.86196 0)
(-13.5459 1.6605 0)
(15.2948 1.4449 0)
(41.4307 1.11342 0)
(59.2144 0.640455 0)
(72.8809 0.0635378 0)
(86.3394 -0.649324 0)
(101.237 -1.57609 0)
(117.238 -2.75431 0)
(132.804 -4.09066 0)
(146.877 -5.41484 0)
(160.91 -6.59528 0)
(179.669 -7.61483 0)
(211.393 -8.32182 0)
(253.3 -8.26118 0)
(269.795 -7.15509 0)
(266.483 -6.02981 0)
(222.501 -4.33602 0)
(89.3633 -2.10587 0)
(6.88455 -0.877399 0)
(2.29647 -0.342039 0)
(10.7051 0.222983 0)
(30.9889 0.885507 0)
(54.6492 1.54815 0)
(71.224 2.08622 0)
(81.5787 2.42772 0)
(90.2865 2.58593 0)
(100.021 2.62142 0)
(111.713 2.44273 0)
(124.571 1.96595 0)
(136.74 1.25315 0)
(147.385 0.304701 0)
(158.165 -0.738089 0)
(174.487 -1.78545 0)
(203.099 -2.76589 0)
(234.017 -3.59802 0)
(247.253 -4.07955 0)
(238.734 -4.3982 0)
(195.44 -4.58383 0)
(88.9297 -3.98587 0)
(31.3166 -3.04889 0)
(24.7039 -2.30351 0)
(33.398 -1.5981 0)
(53.7814 -0.763826 0)
(75.5499 0.0745873 0)
(90.2419 0.901818 0)
(98.1303 1.667 0)
(103.881 2.22582 0)
(111.039 2.63188 0)
(120.83 2.86329 0)
(131.961 2.76321 0)
(142.251 2.42166 0)
(151.881 1.90245 0)
(165.176 1.2411 0)
(191.121 0.265734 0)
(219.105 -0.906197 0)
(225.238 -1.72396 0)
(205.471 -2.1622 0)
(138.073 -2.46278 0)
(62.8485 -2.34465 0)
(47.128 -1.83988 0)
(50.433 -1.26194 0)
(67.7275 -0.389998 0)
(90.8465 0.572469 0)
(108.232 1.44622 0)
(116.583 1.97776 0)
(120.592 2.07372 0)
(124.708 1.90392 0)
(130.571 1.3718 0)
(137.9 0.49981 0)
(147.49 -0.648328 0)
(162.652 -1.83832 0)
(184.371 -2.66958 0)
(197.778 -2.66401 0)
(185.175 -2.26481 0)
(144.325 -1.34416 0)
(88.3095 -0.278049 0)
(62.2343 0.42289 0)
(63.9137 0.778461 0)
(82.3422 0.911536 0)
(106.151 0.762365 0)
(122.63 0.476355 0)
(129.509 0.0437536 0)
(132.426 -0.424983 0)
(137.721 -1.14868 0)
(151.537 -1.97798 0)
(175.146 -2.90385 0)
(190.492 -3.41593 0)
(183.489 -3.19978 0)
(150.195 -2.27836 0)
(110.115 -0.907948 0)
(91.6099 0.572706 0)
(97.3348 2.08477 0)
(113.41 3.60063 0)
(128.972 4.54605 0)
(144.444 4.54755 0)
(158.446 3.69435 0)
(152.942 2.32866 0)
(130.919 1.3915 0)
(111.156 0.350102 0)
(108.47 -0.44594 0)
(123.344 -1.49355 0)
(141.458 -2.28782 0)
(143.527 -1.95269 0)
(136.906 -1.16877 0)
(127.013 -0.335843 0)
(124.179 -0.30585 0)
(127.508 -0.562614 0)
(135.107 -0.940238 0)
(138.477 -0.835201 0)
(137.009 -0.452015 0)
(133.167 0.107627 0)
(131.035 0.299587 0)
(131.368 0.1855 0)
(133.155 -0.135697 0)
(134.168 -0.324452 0)
(133.842 -0.310923 0)
(132.581 -0.132414 0)
(131.711 0.0691299 0)
(131.754 0.111977 0)
(132.317 0.0664872 0)
(132.806 -0.0419737 0)
(132.713 -0.08989 0)
(132.22 -0.0938895 0)
(131.684 -0.0184226 0)
(131.577 0.0469624 0)
(131.827 0.0897316 0)
(132.401 0.0827305 0)
(132.747 0.0457303 0)
(132.728 0.0241846 0)
(132.569 0.00460186 0)
(132.406 -0.00722806 0)
(132.36 -0.0159579 0)
(132.377 -0.0238329 0)
(132.396 -0.0331474 0)
(132.356 -0.0386041 0)
(132.25 -0.0425724 0)
(132.072 -0.0423111 0)
(131.896 -0.0368691 0)
(131.778 -0.0306633 0)
(131.699 -0.025811 0)
(131.64 -0.0201181 0)
(131.609 -0.0100652 0)
(131.609 0.00192001 0)
(131.656 0.0187116 0)
(131.746 0.0357693 0)
(131.8 0.048617 0)
(131.784 0.0556304 0)
(131.72 0.0657157 0)
(131.608 0.0790034 0)
(131.475 0.0943737 0)
(131.384 0.107279 0)
(131.336 0.112884 0)
(131.315 0.111047 0)
(131.297 0.106558 0)
(131.274 0.100392 0)
(131.24 0.0944593 0)
(131.195 0.0918711 0)
(131.14 0.0945028 0)
(131.075 0.104071 0)
(131.016 0.119029 0)
(130.979 0.132362 0)
(130.965 0.139794 0)
(130.966 0.145202 0)
(130.984 0.143936 0)
(131.012 0.133201 0)
(131.034 0.117962 0)
(131.04 0.106084 0)
(131.034 0.0989769 0)
(131.022 0.0929461 0)
(131.002 0.0867255 0)
(130.97 0.0817015 0)
(130.921 0.0783071 0)
(130.848 0.0765661 0)
(130.745 0.0769239 0)
(130.601 0.0791574 0)
(130.401 0.0820555 0)
(130.123 0.085546 0)
(129.802 0.089767 0)
(129.576 0.0890794 0)
(129.497 0.0793141 0)
(129.415 0.0673181 0)
(129.318 0.0524922 0)
(129.238 0.0379648 0)
(129.208 0.0239869 0)
(129.271 0.0121862 0)
(129.458 -0.00147455 0)
(129.78 -0.0149935 0)
(130.17 -0.026296 0)
(130.479 -0.0422063 0)
(130.59 -0.0597195 0)
(130.588 -0.0686533 0)
(130.544 -0.0825517 0)
(130.46 -0.10359 0)
(130.287 -0.121189 0)
(129.971 -0.131267 0)
(129.529 -0.136771 0)
(129.167 -0.137389 0)
(129.079 -0.134651 0)
(129.128 -0.13293 0)
(129.22 -0.131268 0)
(129.391 -0.129764 0)
(129.604 -0.125979 0)
(129.867 -0.11831 0)
(130.147 -0.111823 0)
(130.339 -0.103726 0)
(130.379 -0.0954993 0)
(130.404 -0.0884902 0)
(130.409 -0.0900015 0)
(130.359 -0.0968349 0)
(130.197 -0.115309 0)
(129.876 -0.135122 0)
(129.383 -0.140262 0)
(128.833 -0.14465 0)
(128.321 -0.117834 0)
(128.015 -0.0289976 0)
(127.881 0.0371155 0)
(127.92 0.129849 0)
(128.102 0.176752 0)
(128.32 0.21763 0)
(128.521 0.258169 0)
(128.695 0.288697 0)
(128.827 0.324968 0)
(128.946 0.352127 0)
(129.101 0.37695 0)
(129.316 0.402378 0)
(129.579 0.42922 0)
(129.827 0.44705 0)
(130 0.470771 0)
(130.058 0.482379 0)
(130.078 0.479835 0)
(130.033 0.474311 0)
(129.884 0.463267 0)
(129.595 0.447257 0)
(129.177 0.432356 0)
(128.771 0.417777 0)
(128.597 0.398763 0)
(128.549 0.382796 0)
(128.537 0.369224 0)
(128.569 0.351957 0)
(128.671 0.328823 0)
(128.867 0.282586 0)
(129.187 0.239448 0)
(129.604 0.165268 0)
(130.057 0.0789873 0)
(130.478 0.042581 0)
(-2431.95 -0.136392 0)
(-675.912 2.2805 0)
(-282.922 -2.58481 0)
(-270.422 -1.85444 0)
(-128.965 -3.52386 0)
(29.1885 -2.47273 0)
(198.223 -1.25179 0)
(315.552 -0.0241804 0)
(346.619 0.426232 0)
(351.885 0.530603 0)
(351.605 0.0549658 0)
(346.843 -0.920466 0)
(332.817 -2.04973 0)
(257.387 -2.856 0)
(-15.2602 -2.82782 0)
(-206.192 -2.73522 0)
(-207.136 -3.0675 0)
(-179.748 -3.3514 0)
(-132.615 -3.61014 0)
(-83.9675 -3.90046 0)
(-39.2053 -4.05256 0)
(3.01584 -4.15268 0)
(44.5419 -4.08559 0)
(86.6115 -4.04192 0)
(130.208 -3.87578 0)
(176.569 -3.52008 0)
(227.96 -2.92931 0)
(284.959 -2.19785 0)
(333.927 -1.22848 0)
(350.572 0.147729 0)
(348.575 1.16667 0)
(297.002 1.99328 0)
(78.3855 1.86587 0)
(-96.9504 1.28408 0)
(-103.676 1.1863 0)
(-85.9771 1.17745 0)
(-50.5865 1.31973 0)
(-16.0251 1.50991 0)
(10.6591 1.63771 0)
(32.8313 1.76474 0)
(54.1878 1.88413 0)
(76.4152 2.11649 0)
(99.6027 2.44043 0)
(122.881 2.85738 0)
(145.431 3.35507 0)
(168.257 3.97958 0)
(196.427 4.74892 0)
(240.032 5.7116 0)
(294.704 6.65581 0)
(314.467 6.70724 0)
(307.885 6.42808 0)
(238.633 5.66893 0)
(50.9892 3.94858 0)
(-31.035 2.92627 0)
(-29.6082 2.58539 0)
(-13.8207 2.2815 0)
(14.8224 1.90158 0)
(40.7317 1.29729 0)
(58.349 0.467207 0)
(71.8714 -0.536077 0)
(85.1911 -1.72672 0)
(99.9665 -3.11496 0)
(115.894 -4.63615 0)
(131.406 -6.16566 0)
(145.538 -7.5271 0)
(159.784 -8.60342 0)
(178.974 -9.43288 0)
(211.432 -9.98406 0)
(254.793 -10.075 0)
(272.479 -8.89127 0)
(269.365 -7.45038 0)
(226.141 -5.36137 0)
(92.6552 -2.85503 0)
(8.11627 -1.29591 0)
(3.27516 -0.523109 0)
(11.691 0.331486 0)
(31.9477 1.31679 0)
(55.3915 2.24011 0)
(71.6435 2.8952 0)
(81.7069 3.2681 0)
(90.1043 3.42099 0)
(99.4972 3.36322 0)
(110.831 3.07206 0)
(123.322 2.5187 0)
(135.189 1.64994 0)
(145.629 0.461112 0)
(156.325 -0.861145 0)
(172.639 -2.16686 0)
(201.457 -3.34376 0)
(233.057 -4.27038 0)
(246.603 -4.83651 0)
(238.293 -5.2912 0)
(195.907 -5.50126 0)
(90.7394 -4.90427 0)
(33.0375 -3.97664 0)
(26.3136 -3.2457 0)
(35.0808 -2.49793 0)
(55.6027 -1.49937 0)
(77.4316 -0.359442 0)
(91.9927 0.819689 0)
(99.5916 1.85923 0)
(105.03 2.60088 0)
(111.81 3.1008 0)
(121.122 3.38727 0)
(131.686 3.35511 0)
(141.387 2.91868 0)
(150.544 2.13997 0)
(163.485 1.07035 0)
(189.311 -0.197905 0)
(217.499 -1.18965 0)
(224.194 -1.85285 0)
(204.536 -2.45499 0)
(138.132 -2.70324 0)
(63.7332 -2.2793 0)
(48.0651 -1.77931 0)
(51.5675 -1.27757 0)
(69.2205 -0.474071 0)
(92.4986 0.588505 0)
(109.52 1.73264 0)
(117.216 2.46629 0)
(120.689 2.55664 0)
(124.41 2.36651 0)
(129.829 1.73445 0)
(136.787 0.537405 0)
(146.233 -0.983518 0)
(161.728 -2.47135 0)
(184.822 -3.52144 0)
(199.737 -3.52137 0)
(188.039 -2.93687 0)
(147.688 -1.54157 0)
(90.7636 0.010579 0)
(63.983 0.85627 0)
(65.0909 1.23642 0)
(83.149 1.33093 0)
(106.634 0.992349 0)
(122.792 0.287015 0)
(129.387 -0.581599 0)
(132.001 -1.46471 0)
(136.821 -2.3324 0)
(149.845 -3.29654 0)
(172.888 -4.43094 0)
(188.448 -5.09097 0)
(182.174 -4.73265 0)
(149.75 -3.29424 0)
(109.727 -1.13727 0)
(91.2618 1.16301 0)
(97.152 3.4239 0)
(113.478 5.77073 0)
(128.983 7.33141 0)
(143.984 7.41852 0)
(157.517 5.77945 0)
(152.59 3.39786 0)
(131.325 1.9671 0)
(111.52 0.715629 0)
(108.082 -0.349283 0)
(122.173 -2.14592 0)
(141.546 -4.11343 0)
(145.579 -4.12195 0)
(138.972 -3.02676 0)
(128.285 -1.26375 0)
(124.178 -0.519659 0)
(126.744 -0.562685 0)
(134.407 -0.977808 0)
(138.708 -0.969166 0)
(137.556 -0.655699 0)
(133.767 -0.0360736 0)
(130.904 0.318913 0)
(130.926 0.223625 0)
(132.516 -0.117992 0)
(133.947 -0.413373 0)
(133.845 -0.408371 0)
(132.909 -0.216155 0)
(131.877 0.0746764 0)
(131.764 0.155614 0)
(132.124 0.121683 0)
(132.601 -0.0248772 0)
(132.59 -0.103455 0)
(132.244 -0.120462 0)
(131.798 -0.0299486 0)
(131.671 0.063356 0)
(131.853 0.127094 0)
(132.34 0.12686 0)
(132.68 0.0804026 0)
(132.679 0.0505515 0)
(132.54 0.0258338 0)
(132.384 0.0101974 0)
(132.332 -0.000650624 0)
(132.343 -0.0131386 0)
(132.361 -0.030198 0)
(132.326 -0.0408937 0)
(132.229 -0.0487079 0)
(132.064 -0.0490333 0)
(131.893 -0.0448667 0)
(131.778 -0.0394541 0)
(131.703 -0.0307847 0)
(131.649 -0.016536 0)
(131.624 0.00173173 0)
(131.628 0.0230289 0)
(131.678 0.0501295 0)
(131.759 0.0760458 0)
(131.799 0.0933562 0)
(131.781 0.102654 0)
(131.719 0.114935 0)
(131.615 0.129461 0)
(131.487 0.146429 0)
(131.386 0.162057 0)
(131.328 0.171043 0)
(131.291 0.171221 0)
(131.267 0.165422 0)
(131.241 0.158197 0)
(131.21 0.152434 0)
(131.172 0.150517 0)
(131.127 0.154134 0)
(131.076 0.164036 0)
(131.021 0.179621 0)
(130.981 0.195918 0)
(130.96 0.205834 0)
(130.956 0.20978 0)
(130.964 0.207174 0)
(130.983 0.195312 0)
(131.005 0.176729 0)
(131.02 0.15757 0)
(131.022 0.142775 0)
(131.013 0.132024 0)
(130.997 0.122099 0)
(130.969 0.114384 0)
(130.924 0.109401 0)
(130.855 0.107203 0)
(130.754 0.108014 0)
(130.611 0.111229 0)
(130.41 0.114887 0)
(130.131 0.118851 0)
(129.805 0.124619 0)
(129.566 0.124553 0)
(129.476 0.115816 0)
(129.396 0.101945 0)
(129.295 0.085157 0)
(129.213 0.0643054 0)
(129.182 0.0417785 0)
(129.246 0.0188721 0)
(129.438 -0.00639295 0)
(129.768 -0.0307934 0)
(130.164 -0.0495079 0)
(130.469 -0.0758156 0)
(130.575 -0.101271 0)
(130.575 -0.111997 0)
(130.533 -0.128681 0)
(130.445 -0.153975 0)
(130.266 -0.176901 0)
(129.956 -0.189292 0)
(129.532 -0.194991 0)
(129.185 -0.196483 0)
(129.101 -0.192306 0)
(129.147 -0.188255 0)
(129.239 -0.183498 0)
(129.407 -0.178965 0)
(129.621 -0.172412 0)
(129.885 -0.158443 0)
(130.159 -0.142036 0)
(130.353 -0.127921 0)
(130.4 -0.113329 0)
(130.406 -0.107734 0)
(130.39 -0.116875 0)
(130.313 -0.147503 0)
(130.134 -0.186888 0)
(129.821 -0.221108 0)
(129.379 -0.222987 0)
(128.884 -0.202327 0)
(128.427 -0.136025 0)
(128.134 -0.000211473 0)
(127.988 0.119772 0)
(127.999 0.250868 0)
(128.15 0.327422 0)
(128.34 0.389122 0)
(128.522 0.439468 0)
(128.696 0.476052 0)
(128.821 0.523308 0)
(128.943 0.554593 0)
(129.096 0.587423 0)
(129.307 0.624235 0)
(129.566 0.6595 0)
(129.812 0.692148 0)
(129.967 0.719833 0)
(130.026 0.724743 0)
(130.034 0.719345 0)
(129.975 0.706827 0)
(129.812 0.685189 0)
(129.515 0.656055 0)
(129.099 0.626197 0)
(128.698 0.60473 0)
(128.512 0.579732 0)
(128.464 0.553201 0)
(128.45 0.532722 0)
(128.475 0.503768 0)
(128.563 0.465483 0)
(128.739 0.396741 0)
(129.043 0.338211 0)
(129.451 0.227344 0)
(129.909 0.0840657 0)
(130.339 0.00140551 0)
(-2433.61 -0.152433 0)
(-900.124 13.8144 0)
(-294.515 -4.2638 0)
(-273.849 -1.73401 0)
(-128.464 -3.39496 0)
(31.584 -2.45815 0)
(199.848 -1.4454 0)
(316.314 -0.284955 0)
(347.043 0.259322 0)
(352.177 0.279048 0)
(351.696 -0.408816 0)
(346.586 -1.58582 0)
(332.277 -2.6125 0)
(257.197 -3.19605 0)
(-14.116 -2.94278 0)
(-206.138 -2.45011 0)
(-207.72 -2.65511 0)
(-181.001 -2.94205 0)
(-134.417 -3.29949 0)
(-86.0828 -3.70614 0)
(-41.4865 -4.03406 0)
(0.670187 -4.25456 0)
(42.2238 -4.29814 0)
(84.4368 -4.32552 0)
(128.341 -4.16604 0)
(175.243 -3.69935 0)
(227.299 -2.97569 0)
(284.963 -2.23538 0)
(335.22 -1.40649 0)
(352.845 -0.144848 0)
(351.003 0.770335 0)
(299.19 1.63272 0)
(78.9478 1.737 0)
(-96.3814 1.3084 0)
(-102.775 1.23149 0)
(-84.8696 1.23091 0)
(-49.3868 1.39775 0)
(-14.8838 1.62196 0)
(11.7111 1.76783 0)
(33.8269 1.90006 0)
(55.1613 2.02102 0)
(77.3996 2.28568 0)
(100.635 2.67704 0)
(123.987 3.20052 0)
(146.612 3.84202 0)
(169.544 4.62448 0)
(197.953 5.50846 0)
(241.761 6.48796 0)
(295.504 7.23859 0)
(314.304 7.26395 0)
(307.452 7.09653 0)
(236.58 6.29971 0)
(48.4953 4.2969 0)
(-31.5398 3.06832 0)
(-29.8865 2.65856 0)
(-14.1194 2.2979 0)
(14.2881 1.86719 0)
(39.8697 1.21233 0)
(57.1813 0.317641 0)
(70.4421 -0.734057 0)
(83.5282 -1.90635 0)
(98.1337 -3.18211 0)
(114.037 -4.51874 0)
(129.747 -5.83631 0)
(144.266 -7.01052 0)
(158.956 -7.90753 0)
(178.508 -8.56057 0)
(211.366 -9.02685 0)
(255.874 -9.14818 0)
(274.663 -8.09138 0)
(271.811 -6.89876 0)
(229.581 -5.19511 0)
(96.0406 -2.99247 0)
(9.47217 -1.53712 0)
(4.43581 -0.808565 0)
(13.0274 0.00267303 0)
(33.4656 1.00256 0)
(56.646 2.07327 0)
(72.2652 2.91274 0)
(81.7919 3.36119 0)
(89.8676 3.50278 0)
(98.9738 3.45296 0)
(109.979 3.1947 0)
(122.079 2.64415 0)
(133.569 1.79512 0)
(143.741 0.717974 0)
(154.279 -0.391943 0)
(170.559 -1.47703 0)
(199.531 -2.53781 0)
(231.871 -3.5394 0)
(245.808 -4.13928 0)
(237.721 -4.53938 0)
(196.127 -4.79216 0)
(91.9915 -4.60774 0)
(34.1921 -4.10521 0)
(27.3614 -3.63158 0)
(36.3213 -3.13155 0)
(57.2298 -2.3484 0)
(79.313 -1.34559 0)
(93.8137 -0.243585 0)
(101.151 0.794154 0)
(106.287 1.60626 0)
(112.725 2.22655 0)
(121.631 2.61369 0)
(131.639 2.60974 0)
(140.652 2.06264 0)
(149.173 1.25551 0)
(161.68 0.4771 0)
(187.481 -0.42567 0)
(216.249 -1.38743 0)
(223.59 -1.73826 0)
(203.893 -1.85254 0)
(138.295 -1.75002 0)
(64.5576 -1.39072 0)
(48.8274 -1.12182 0)
(52.5501 -0.790076 0)
(70.7233 -0.0716399 0)
(94.278 0.956695 0)
(111.027 1.91943 0)
(118.167 2.45138 0)
(121.102 2.30562 0)
(124.348 1.85459 0)
(129.311 1.00115 0)
(135.883 -0.287077 0)
(145.22 -1.773 0)
(161.259 -3.01621 0)
(185.832 -3.84944 0)
(202.328 -3.70603 0)
(191.767 -3.04667 0)
(152.398 -1.56628 0)
(94.2528 0.246009 0)
(66.5558 1.31093 0)
(66.7406 1.76287 0)
(84.1329 1.6953 0)
(107.229 1.07249 0)
(123.029 0.19316 0)
(129.166 -0.836754 0)
(131.239 -1.87488 0)
(135.384 -2.95994 0)
(147.446 -4.18005 0)
(169.757 -5.56012 0)
(185.621 -6.35027 0)
(180.164 -5.72443 0)
(148.81 -3.85732 0)
(108.891 -0.98073 0)
(90.4175 1.933 0)
(96.5451 4.64107 0)
(113.102 8.21558 0)
(128.622 9.9314 0)
(143.072 9.74257 0)
(156.545 6.97001 0)
(153.382 3.45084 0)
(133.863 1.68821 0)
(114.054 0.85094 0)
(108.766 0.123338 0)
(120.152 -1.80915 0)
(140.539 -4.91795 0)
(147.976 -5.42892 0)
(141.731 -4.63285 0)
(130.736 -2.4042 0)
(124.762 -0.841241 0)
(126.194 -0.429637 0)
(133.405 -0.655217 0)
(138.56 -0.816164 0)
(137.855 -0.603729 0)
(134.334 -0.178117 0)
(130.828 0.167935 0)
(130.501 0.115938 0)
(131.817 -0.128042 0)
(133.646 -0.397534 0)
(133.861 -0.372426 0)
(133.225 -0.209186 0)
(132.067 0.0590105 0)
(131.729 0.135633 0)
(131.901 0.087835 0)
(132.334 -0.0547722 0)
(132.466 -0.130582 0)
(132.25 -0.123324 0)
(131.916 -0.024581 0)
(131.768 0.0787484 0)
(131.866 0.14203 0)
(132.246 0.144586 0)
(132.575 0.0948296 0)
(132.6 0.0626778 0)
(132.484 0.0400197 0)
(132.342 0.0272747 0)
(132.286 0.0156546 0)
(132.294 0.00380435 0)
(132.314 -0.0132479 0)
(132.288 -0.0254933 0)
(132.2 -0.0359435 0)
(132.045 -0.0407848 0)
(131.876 -0.0452424 0)
(131.763 -0.0506841 0)
(131.699 -0.0489022 0)
(131.665 -0.0319468 0)
(131.654 -0.00596049 0)
(131.668 0.0279179 0)
(131.721 0.0664482 0)
(131.789 0.100908 0)
(131.812 0.122808 0)
(131.791 0.135161 0)
(131.729 0.150921 0)
(131.628 0.16771 0)
(131.503 0.186237 0)
(131.395 0.203624 0)
(131.323 0.214969 0)
(131.276 0.217753 0)
(131.241 0.21334 0)
(131.213 0.206498 0)
(131.187 0.201933 0)
(131.158 0.199877 0)
(131.123 0.202105 0)
(131.081 0.210467 0)
(131.032 0.222172 0)
(130.99 0.234602 0)
(130.964 0.243029 0)
(130.954 0.244782 0)
(130.954 0.242079 0)
(130.962 0.230761 0)
(130.979 0.211297 0)
(130.999 0.187987 0)
(131.011 0.166664 0)
(131.009 0.150534 0)
(130.996 0.13772 0)
(130.972 0.127843 0)
(130.931 0.12262 0)
(130.866 0.121861 0)
(130.768 0.125266 0)
(130.627 0.130983 0)
(130.427 0.136934 0)
(130.15 0.143181 0)
(129.823 0.151861 0)
(129.576 0.154158 0)
(129.468 0.150878 0)
(129.391 0.137064 0)
(129.284 0.121339 0)
(129.194 0.0981662 0)
(129.157 0.0727913 0)
(129.217 0.0434084 0)
(129.413 0.00776642 0)
(129.752 -0.0302934 0)
(130.157 -0.0601833 0)
(130.461 -0.0982591 0)
(130.566 -0.132062 0)
(130.571 -0.145496 0)
(130.533 -0.163683 0)
(130.441 -0.189724 0)
(130.258 -0.21178 0)
(129.949 -0.221087 0)
(129.537 -0.221113 0)
(129.21 -0.217525 0)
(129.132 -0.209717 0)
(129.173 -0.203431 0)
(129.265 -0.195398 0)
(129.428 -0.186885 0)
(129.643 -0.175453 0)
(129.91 -0.154031 0)
(130.181 -0.130058 0)
(130.371 -0.11129 0)
(130.413 -0.100308 0)
(130.394 -0.104759 0)
(130.341 -0.129438 0)
(130.233 -0.182754 0)
(130.042 -0.243623 0)
(129.749 -0.291674 0)
(129.37 -0.31206 0)
(128.955 -0.282876 0)
(128.574 -0.188441 0)
(128.309 -0.0321627 0)
(128.176 0.135356 0)
(128.166 0.297942 0)
(128.27 0.425033 0)
(128.417 0.520176 0)
(128.565 0.586416 0)
(128.721 0.629593 0)
(128.838 0.680644 0)
(128.965 0.711765 0)
(129.127 0.751125 0)
(129.342 0.799278 0)
(129.601 0.845028 0)
(129.837 0.888435 0)
(129.957 0.908755 0)
(130.008 0.90551 0)
(129.999 0.897339 0)
(129.923 0.878766 0)
(129.745 0.846322 0)
(129.443 0.806413 0)
(129.043 0.763058 0)
(128.672 0.736026 0)
(128.481 0.721023 0)
(128.435 0.702735 0)
(128.423 0.69306 0)
(128.441 0.680306 0)
(128.514 0.661665 0)
(128.665 0.607611 0)
(128.938 0.562574 0)
(129.301 0.435556 0)
(129.717 0.263564 0)
(130.114 0.136016 0)
(-2430.36 0.305734 0)
(-601.268 -11.8497 0)
(-296.227 -9.85587 0)
(-274.196 -0.295018 0)
(-128.762 -2.06862 0)
(31.5844 -2.44391 0)
(200.25 -1.89287 0)
(317.023 -1.15127 0)
(348.201 -0.639715 0)
(353.318 -0.777084 0)
(352.67 -1.5416 0)
(346.804 -2.67292 0)
(331.546 -3.33839 0)
(256.45 -3.49607 0)
(-13.1221 -2.56348 0)
(-206.215 -1.54641 0)
(-208.419 -1.4991 0)
(-182.287 -1.68309 0)
(-136.153 -2.0504 0)
(-88.0225 -2.5149 0)
(-43.53 -2.98776 0)
(-1.42491 -3.37226 0)
(40.1604 -3.57985 0)
(82.5676 -3.67717 0)
(126.905 -3.50793 0)
(174.401 -3.00395 0)
(226.916 -2.2746 0)
(284.993 -1.60624 0)
(336.246 -1.06738 0)
(354.621 -0.361962 0)
(352.852 0.159741 0)
(301.009 0.720604 0)
(79.9823 1.08716 0)
(-95.7208 1.11994 0)
(-101.929 1.15599 0)
(-83.8502 1.21369 0)
(-48.2483 1.33879 0)
(-13.7448 1.50122 0)
(12.8084 1.61557 0)
(34.8939 1.73061 0)
(56.214 1.87201 0)
(78.4626 2.13502 0)
(101.754 2.4996 0)
(125.207 2.97533 0)
(147.938 3.5582 0)
(170.981 4.23596 0)
(199.586 4.99202 0)
(243.561 5.83841 0)
(296.481 6.5709 0)
(314.384 6.49528 0)
(307.248 6.17817 0)
(234.625 5.28465 0)
(46.0214 3.3738 0)
(-31.9288 2.27546 0)
(-30.0568 1.83785 0)
(-14.2859 1.41975 0)
(13.9186 0.965296 0)
(39.2445 0.419612 0)
(56.3461 -0.17904 0)
(69.4467 -0.809107 0)
(82.425 -1.46369 0)
(96.9703 -2.14713 0)
(112.841 -2.86319 0)
(128.528 -3.60507 0)
(143.062 -4.33608 0)
(157.856 -5.0099 0)
(177.608 -5.63286 0)
(210.761 -6.11975 0)
(256.362 -6.15829 0)
(276.303 -5.39228 0)
(273.732 -4.5008 0)
(232.257 -3.32496 0)
(98.66 -2.05548 0)
(10.5467 -1.26602 0)
(5.32752 -0.828346 0)
(13.9809 -0.363371 0)
(34.6795 0.231097 0)
(57.9298 0.990513 0)
(73.2632 1.77391 0)
(82.424 2.32592 0)
(90.1245 2.62398 0)
(98.8214 2.60489 0)
(109.403 2.25943 0)
(121.108 1.83563 0)
(132.27 1.34812 0)
(142.228 0.820698 0)
(152.662 0.249677 0)
(168.92 -0.342055 0)
(197.901 -0.910251 0)
(230.692 -1.42858 0)
(244.945 -1.87028 0)
(237.057 -2.25838 0)
(195.938 -2.56586 0)
(92.3332 -2.74098 0)
(34.7881 -2.75443 0)
(28.022 -2.55558 0)
(37.2193 -2.32219 0)
(58.4801 -2.07171 0)
(80.8169 -1.74181 0)
(95.379 -1.28341 0)
(102.623 -0.761184 0)
(107.569 -0.344127 0)
(113.723 0.023899 0)
(122.152 0.267648 0)
(131.487 0.296349 0)
(139.822 0.117892 0)
(147.922 -0.279042 0)
(160.33 -0.822779 0)
(186.287 -1.36483 0)
(215.541 -1.60114 0)
(223.483 -1.2783 0)
(203.733 -0.831987 0)
(138.62 -0.482206 0)
(65.1867 -0.297385 0)
(49.3674 -0.23927 0)
(53.3718 -0.0891329 0)
(72.086 0.441304 0)
(95.8072 1.23048 0)
(112.144 1.78645 0)
(118.783 1.83019 0)
(121.342 1.52915 0)
(124.156 0.720907 0)
(128.783 -0.353392 0)
(135.196 -1.33421 0)
(144.799 -2.29565 0)
(161.504 -3.05535 0)
(187.499 -3.3659 0)
(205.649 -2.95463 0)
(196.194 -2.18863 0)
(157.872 -0.790711 0)
(98.1871 0.823153 0)
(69.6222 1.74581 0)
(68.6995 2.05836 0)
(85.2392 1.76602 0)
(107.884 0.84856 0)
(123.452 -0.312702 0)
(129.17 -1.53179 0)
(130.632 -2.61236 0)
(133.932 -3.62332 0)
(144.785 -4.74631 0)
(166.127 -6.16397 0)
(182.444 -6.77455 0)
(178.045 -5.78317 0)
(147.696 -3.61547 0)
(107.957 -0.385652 0)
(89.3787 2.82901 0)
(95.8064 6.05637 0)
(112.787 9.10357 0)
(128.351 11.2865 0)
(142.298 10.5103 0)
(156.072 6.77571 0)
(155.635 2.24213 0)
(138.704 0.223602 0)
(119.078 -0.0548 0)
(111.03 -0.0385921 0)
(118.16 -1.28169 0)
(137.996 -4.52378 0)
(149.22 -5.97376 0)
(144.557 -5.23944 0)
(133.688 -3.17352 0)
(125.908 -0.991817 0)
(126.005 -0.300534 0)
(132.295 -0.294163 0)
(138.02 -0.622109 0)
(137.788 -0.594136 0)
(134.711 -0.328169 0)
(130.832 0.0137125 0)
(130.161 0.0426568 0)
(131.249 -0.0696449 0)
(133.312 -0.276577 0)
(133.875 -0.271997 0)
(133.423 -0.164411 0)
(132.246 0.0261372 0)
(131.629 0.0947706 0)
(131.676 0.0506602 0)
(132.062 -0.0556423 0)