/*--------------------------------*- C++ -*----------------------------------*\
| =========                 |                                                 |
| \\      /  F ield         | OpenFOAM: The Open Source CFD Toolbox           |
|  \\    /   O peration     | Version:  2306                                  |
|   \\  /    A nd           | Website:  www.openfoam.com                      |
|    \\/     M anipulation  |                                                 |
\*---------------------------------------------------------------------------*/
FoamFile
{
    version     2.0;
    format      ascii;
    arch        "LSB;label=32;scalar=64";
    class       volScalarField;
    location    "0.05";
    object      p;
}
// * * * * * * * * * * * * * * * * * * * * * * * * * * * * * * * * * * * * * //

dimensions      [1 -1 -2 0 0 0 0];

internalField   nonuniform List<scalar> 
6000
(
1.58338e+07
809824
195624
199323
178556
141508
103013
98333.8
99970.5
106940
117599
130784
146044
164196
184692
200444
206443
207852
207794
203211
173313
124968
115215
116522
121296
128232
135173
141529
147597
153714
160025
166652
174443
185731
198626
202853
202040
188458
148654
129047
128924
132236
138215
143941
148449
152251
155799
159375
163183
167620
174195
184253
192636
193090
183713
156454
140149
139571
142094
147683
153391
157587
160481
162826
165321
169097
175497
183973
184501
178127
160251
146162
144635
147200
153428
159756
163886
166611
170228
176372
180447
177125
166236
151628
147452
149221
155642
164075
173377
180684
175600
163556
151835
149736
158142
171518
170233
163318
157959
158180
163743
166997
166371
164591
163996
164412
165468
165720
165509
164878
164094
163382
162596
161781
161354
161299
161411
161824
162434
163117
163861
164729
165686
166426
166710
166754
166736
166677
166537
166229
165594
164433
162808
161499
161120
161122
161250
161675
162577
163919
165137
165630
165678
165644
165506
165152
164473
163418
162061
160639
159529
158963
158782
158740
158760
158861
159132
159661
160397
161079
161473
161606
161606
161322
160572
159413
158324
157692
157430
157313
157257
157372
157800
158649
159891
161383
162981
164657
166462
168464
170712
173218
175930
178750
181596
184418
187058
189068
189929
189991
189855
189387
187880
183698
174317
160916
152466
150895
150842
150846
150871
150919
150980
151038
151084
151121
151154
151189
151227
151268
151310
151353
151394
151436
151477
151519
151562
151605
151649
151694
151738
151784
151829
151875
151921
151968
152016
152064
152113
152162
152211
152261
152311
152362
152413
152465
152518
152572
152626
152680
152735
152791
152847
152904
152963
153021
153080
153140
153200
153261
153323
153385
153449
153514
153579
153644
153711
153778
153846
153915
153986
154057
154128
154199
154272
154350
154434
154522
154608
154682
154737
154775
154807
154854
154935
155060
155212
155367
155505
155618
155712
155797
155881
155968
156058
156151
156246
156343
156442
156543
156646
156751
156858
156967
157077
157190
157304
157423
157530
157723
1.58235e+07
810843
195724
199504
178463
140908
102820
98404.9
100090
107100
117712
130787
145931
163793
183869
199759
206200
207851
207867
203471
174175
125529
115357
116672
121468
128421
135355
141695
147753
153870
160174
166771
174518
185760
198573
202683
201829
188173
148399
128942
128868
132228
138233
143973
148512
152386
156060
159795
163697
168159
174697
184684
192634
192816
182780
155402
139867
139451
142084
147732
153409
157604
160539
162973
165602
169479
175922
184214
184488
177590
159484
145882
144581
147276
153528
159730
163861
166740
170556
176816
180555
177051
165847
151320
147331
149229
155755
164188
173466
180702
175580
163542
151888
149768
158133
171663
170403
163369
157863
158071
163736
167019
166370
164536
163921
164332
165388
165640
165423
164779
163994
163310
162570
161808
161420
161368
161470
161859
162441
163087
163790
164627
165581
166346
166652
166703
166689
166634
166506
166223
165627
164514
162929
161630
161233
161216
161323
161715
162576
163880
165092
165602
165658
165627
165491
165145
164477
163435
162091
160694
159632
159126
158985
158946
158956
159055
159335
159873
160583
161125
161281
161313
161206
160850
160100
159023
158052
157569
157428
157364
157417
157658
158170
159024
160203
161611
163162
164823
166615
168596
170819
173299
175985
178760
181484
184056
186475
188537
189642
189820
189692
189274
187866
183831
174633
161247
152572
150901
150842
150846
150871
150919
150980
151038
151084
151121
151154
151189
151227
151268
151310
151353
151394
151436
151477
151519
151562
151605
151649
151694
151738
151784
151829
151875
151921
151968
152016
152064
152113
152162
152211
152261
152311
152362
152413
152465
152518
152572
152626
152680
152735
152791
152847
152904
152963
153021
153080
153140
153200
153261
153323
153385
153449
153513
153579
153644
153711
153778
153846
153915
153986
154057
154128
154199
154272
154350
154434
154522
154609
154682
154737
154775
154807
154854
154935
155059
155212
155367
155505
155618
155712
155797
155881
155968
156058
156152
156247
156344
156443
156543
156646
156751
156858
156967
157077
157190
157304
157423
157530
157723
1.58167e+07
813363
196371
200310
178689
140100
102614
98577.1
100316
107364
117943
130915
145778
163143
182729
198806
205695
207586
207705
203834
175487
126315
115471
116762
121582
128573
135501
141812
147851
153980
160321
166953
174709
185952
198635
202635
201699
187676
147789
128749
128751
132216
138279
144029
148608
152560
156330
160134
164122
168706
175483
185786
193111
192869
181559
153417
139274
139159
142055
147851
153473
157556
160424
162862
165641
169897
176842
184979
184860
176978
158066
145314
144435
147416
153752
159778
163721
166640
170806
177569
181076
177290
165206
150598
147027
149179
155876
164293
173563
180681
175550
163561
151861
149733
157997
171834
170827
163645
157776
157887
163620
167079
166443
164523
163851
164266
165347
165600
165361
164649
163827
163173
162515
161853
161507
161459
161572
161951
162499
163091
163731
164507
165421
166202
166542
166605
166596
166542
166422
166158
165607
164594
163119
161836
161391
161367
161472
161836
162625
163833
165014
165557
165630
165598
165461
165123
164475
163460
162138
160756
159734
159291
159183
159157
159197
159355
159714
160295
160865
161083
161117
161064
160830
160279
159344
158257
157566
157422
157423
157490
157664
158008
158601
159484
160632
161982
163473
165079
166825
168769
170963
173420
176087
178812
181372
183638
185684
187609
189068
189520
189413
189040
187746
183979
175152
161809
152755
150912
150842
150846
150870
150919
150981
151039
151084
151121
151154
151189
151227
151268
151310
151353
151394
151436
151477
151519
151562
151605
151649
151694
151738
151784
151829
151875
151921
151968
152016
152064
152113
152162
152211
152261
152311
152362
152413
152465
152518
152572
152626
152680
152735
152791
152847
152904
152962
153021
153080
153140
153200
153261
153323
153385
153449
153513
153579
153644
153711
153778
153846
153915
153986
154057
154128
154199
154272
154350
154434
154522
154609
154682
154737
154774
154807
154854
154935
155059
155211
155367
155505
155618
155712
155797
155881
155968
156059
156152
156247
156344
156443
156544
156646
156751
156858
156966
157077
157190
157304
157423
157530
157723
1.58123e+07
816229
196925
201096
179099
139652
102587
98878.5
100633
107669
118170
130953
145514
162432
181650
198004
205439
207636
207834
204351
176763
127000
115526
116804
121679
128722
135631
141895
147907
154046
160424
167103
174914
186217
198809
202773
201726
187072
146900
128512
128629
132251
138400
144167
148787
152785
156603
160459
164541
169314
176471
187242
193861
193040
179772
150728
138563
138719
142089
148051
153608
157564
160368
162859
165793
170479
178191
185869
185443
175865
156017
144573
144213
147624
154076
159851
163575
166548
171102
178514
181766
177573
164296
149607
146602
149113
156014
164414
173690
180729
175626
163688
151894
149684
157677
171913
171505
164207
157804
157673
163386
167086
166489
164479
163734
164150
165238
165481
165214
164438
163605
163026
162491
161949
161648
161606
161730
162084
162574
163092
163655
164347
165197
165986
166374
166455
166452
166405
166294
166054
165559
164659
163352
162142
161651
161606
161708
162029
162704
163750
164853
165458
165570
165545
165418
165108
164507
163538
162228
160835
159875
159553
159492
159499
159589
159818
160244
160765
161040
161051
160983
160752
160258
159403
158277
157411
157192
157224
157336
157572
157942
158470
159196
160140
161283
162578
163992
165521
167200
169081
171212
173603
176181
178748
181037
182957
184641
186376
188139
189075
189063
188772
187666
184258
175885
162590
153020
150930
150842
150846
150870
150919
150981
151039
151084
151120
151154
151188
151227
151268
151310
151353
151394
151436
151477
151519
151562
151605
151649
151694
151738
151784
151829
151875
151921
151968
152016
152064
152113
152162
152211
152261
152311
152362
152413
152465
152518
152572
152626
152680
152735
152791
152847
152904
152962
153021
153080
153140
153200
153261
153322
153385
153449
153513
153579
153644
153711
153778
153846
153916
153986
154057
154128
154199
154273
154350
154434
154523
154609
154682
154737
154774
154807
154853
154935
155059
155211
155366
155504
155618
155712
155797
155881
155969
156059
156153
156248
156344
156443
156544
156646
156751
156857
156966
157077
157189
157304
157423
157531
157724
1.58143e+07
818452
196932
201041
179123
139590
102769
99213.4
100949
107945
118346
130948
145246
161879
180882
197425
205120
207624
207999
204858
177594
127309
115481
116771
121703
128784
135670
141890
147882
154038
160454
167191
175090
186512
199067
203075
201899
186437
145859
128227
128498
132349
138584
144346
148982
152987
156822
160712
164878
169903
177548
188935
194985
193349
177512
147691
137840
138331
142241
148357
153757
157508
160228
162792
166001
171319
180078
187077
186083
174204
153372
143830
143901
147939
154432
159858
163327
166407
171491
179724
182634
177807
163134
148477
146070
149039
156177
164610
173896
180835
175795
163749
151784
149529
157301
172006
172390
164975
157929
157464
163076
167065
166526
164420
163584
163999
165093
165328
165031
164183
163361
162891
162501
162090
161841
161811
161943
162263
162685
163121
163590
164183
164949
165729
166172
166276
166277
166228
166116
165885
165431
164634
163539
162513
162032
161953
162041
162309
162850
163681
164625
165277
165461
165454
165345
165075
164546
163654
162368
160961
160073
159860
159843
159899
160057
160372
160811
161101
161117
161036
160818
160348
159517
158333
157228
156808
156824
156964
157246
157670
158241
158953
159818
160842
162006
163277
164637
166098
167704
169507
171549
173820
176206
178477
180438
182030
183437
184997
186916
188454
188709
188508
187634
184635
176763
163523
153352
150953
150843
150846
150870
150919
150981
151040
151085
151120
151153
151188
151227
151268
151310
151353
151394
151436
151477
151519
151562
151605
151649
151694
151738
151784
151829
151875
151921
151968
152016
152064
152113
152162
152211
152261
152311
152362
152413
152465
152518
152572
152626
152680
152735
152791
152847
152904
152962
153021
153080
153140
153200
153261
153322
153385
153449
153513
153579
153644
153711
153778
153846
153916
153986
154057
154128
154200
154273
154350
154434
154523
154609
154682
154737
154774
154807
154853
154934
155058
155210
155366
155504
155617
155712
155797
155881
155969
156060
156153
156249
156345
156443
156544
156646
156750
156857
156965
157076
157189
157303
157423
157531
157724
1.58159e+07
820264
196315
200385
178793
139722
103046
99422.5
101137
108092
118455
130978
145152
161592
180451
197167
205190
207856
208291
205207
177746
127083
115304
116646
121644
128739
135595
141782
147756
153914
160361
167162
175218
186836
199468
203555
202262
185839
144742
127939
128344
132393
138675
144416
149063
153080
156941
160857
165094
170359
178513
190600
196228
193708
174949
144915
137225
138068
142552
148784
153963
157443
160031
162658
166227
172356
182421
188539
186561
171881
150350
143068
143663
148370
154834
159807
162960
166166
171898
181093
183551
177888
161715
147280
145485
148971
156305
164726
174210
181189
176018
163600
151393
149210
157055
172289
173338
165764
158046
157270
162804
167063
166574
164345
163389
163802
164903
165138
164809
163903
163148
162818
162572
162278
162080
162061
162195
162476
162819
163162
163535
164024
164691
165438
165939
166082
166088
166035
165910
165665
165220
164516
163647
162922
162536
162405
162453
162656
163049
163640
164350
164981
165285
165324
165245
165033
164595
163798
162563
161173
160368
160222
160231
160329
160556
160918
161235
161304
161231
161044
160623
159837
158636
157305
156545
156432
156495
156699
157131
157789
158599
159516
160530
161638
162825
164073
165384
166782
168314
170025
171932
173991
176041
177931
179524
180835
182071
183541
185548
187681
188459
188366
187724
185110
177717
164535
153734
150983
150843
150847
150870
150919
150982
151040
151085
151120
151153
151188
151226
151268
151310
151353
151394
151436
151477
151519
151562
151605
151649
151694
151738
151784
151829
151875
151921
151968
152016
152064
152113
152162
152211
152261
152311
152362
152413
152465
152518
152572
152626
152680
152735
152791
152847
152904
152962
153021
153080
153140
153200
153261
153322
153385
153449
153513
153579
153644
153711
153778
153846
153916
153986
154058
154129
154200
154273
154351
154434
154523
154609
154682
154737
154774
154807
154853
154934
155058
155210
155365
155503
155617
155711
155797
155882
155969
156060
156154
156249
156346
156444
156544
156646
156750
156857
156965
157076
157189
157303
157423
157530
157724
1.58236e+07
821338
195442
199233
177953
139603
103191
99503.5
101162
108102
118471
131040
145243
161632
180482
197435
205655
208247
208684
205354
177091
126333
115007
116406
121494
128632
135493
141676
147649
153807
160268
167134
175344
187187
199973
204112
202677
185297
143695
127688
128209
132426
138734
144434
149063
153071
156947
160893
165217
170716
179331
192023
197385
193949
172357
142725
136762
137941
142925
149212
154134
157345
159809
162544
166636
173781
185206
190127
186558
168882
147320
142291
143532
148820
155202
159689
162586
165979
172419
182564
184440
177764
160080
146117
144901
148915
156407
164868
174656
181619
176271
163160
150665
148691
156977
172811
174282
166436
158061
157065
162600
167100
166635
164245
163157
163571
164686
164927
164575
163647
163015
162829
162693
162500
162356
162350
162478
162716
162976
163224
163502
163882
164437
165125
165678
165880
165898
165844
165706
165430
164954
164300
163689
163326
163119
162975
162933
163039
163278
163627
164068
164577
164997
165143
165117
164970
164624
163939
162793
161462
160725
160610
160635
160764
161028
161347
161500
161463
161324
160997
160332
159209
157746
156583
156220
156222
156304
156558
157079
157895
158927
160066
161247
162451
163673
164916
166195
167544
168993
170560
172232
173930
175600
177092
178344
179449
180607
182092
184235
186883
188360
188399
187930
185636
178676
165570
154149
151019
150844
150847
150870
150919
150982
151040
151085
151120
151153
151188
151226
151268
151310
151353
151394
151436
151477
151519
151562
151605
151649
151694
151738
151784
151829
151875
151921
151968
152016
152064
152113
152162
152211
152261
152311
152362
152413
152465
152518
152572
152626
152680
152735
152791
152847
152904
152962
153021
153080
153140
153200
153260
153322
153385
153449
153513
153579
153645
153711
153778
153847
153916
153987
154058
154129
154200
154273
154351
154435
154523
154609
154682
154737
154774
154806
154852
154934
155057
155209
155365
155503
155617
155711
155797
155882
155969
156061
156154
156250
156346
156444
156544
156646
156751
156857
156965
157076
157188
157303
157423
157530
157723
1.58314e+07
821648
195251
198914
177604
139479
103084
99332.2
101004
107951
118356
131032
145415
162032
181122
198185
206304
208726
209122
205399
175941
125274
114698
116194
121378
128557
135437
141642
147640
153815
160286
167197
175535
187587
200538
204631
203008
184768
142717
127466
128085
132425
138751
144423
149010
152989
156865
160833
165224
170930
179943
193120
198277
194011
170115
141196
136426
137904
143271
149556
154242
157269
159689
162586
167294
175587
187918
191471
186069
165388
144794
141618
143490
149265
155459
159486
162219
165899
173095
184064
185271
177434
158325
145164
144393
148970
156564
165090
175215
182025
176477
162552
150090
148436
157261
173629
175099
166883
157960
156870
162532
167156
166673
164099
162901
163332
164469
164715
164349
163431
162958
162903
162857
162749
162659
162669
162786
162970
163146
163300
163480
163756
164195
164805
165391
165669
165710
165659
165506
165185
164661
164090
163775
163712
163687
163626
163517
163443
163492
163590
163795
164143
164590
164898
164955
164875
164621
164045
163025
161791
161102
160994
161022
161156
161400
161617
161660
161574
161367
160890
159973
158569
157101
156299
156129
156143
156236
156539
157165
158135
159348
160665
161990
163285
164552
165804
167059
168327
169609
170901
172226
173586
174848
175964
176970
177980
179156
180745
183093
186192
188322
188550
188206
186179
179603
166591
154589
151061
150846
150848
150870
150919
150983
151041
151085
151120
151153
151188
151226
151268
151310
151353
151394
151436
151477
151519
151562
151605
151649
151694
151738
151784
151829
151875
151921
151968
152016
152064
152113
152162
152211
152261
152311
152362
152413
152465
152518
152572
152626
152680
152735
152791
152847
152904
152962
153021
153080
153140
153200
153260
153322
153385
153449
153513
153579
153645
153711
153778
153847
153916
153987
154058
154129
154200
154274
154351
154435
154523
154609
154682
154736
154774
154806
154852
154933
155057
155209
155365
155503
155616
155711
155797
155881
155969
156061
156155
156250
156347
156445
156545
156647
156751
156857
156965
157075
157188
157302
157422
157529
157723
1.58382e+07
821579
195710
199475
178014
139533
102805
99006
100703
107700
118211
131057
145715
162753
182227
199153
206960
209270
209556
205348
174549
124168
114460
116050
121335
128556
135463
141712
147754
153959
160444
167376
175791
188003
201019
204897
203111
184227
141908
127256
127933
132339
138656
144302
148880
152874
156783
160802
165266
171170
180509
193950
198772
193851
168391
140124
136134
137883
143504
149767
154315
157267
159759
162875
168174
177449
190000
192340
185175
161945
142998
141112
143529
149628
155548
159235
161928
165981
173945
185504
185920
176832
156528
144359
144043
149112
156785
165411
175961
182570
176744
161818
149475
148297
157798
174556
175671
167153
157933
156869
162690
167175
166573
163815
162620
163107
164280
164517
164128
163254
162962
163000
163043
163020
162985
163018
163126
163243
163317
163377
163463
163640
163971
164491
165079
165433
165508
165458
165281
164913
164402
164031
163987
164072
164205
164262
164177
163919
163586
163491
163545
163743
164120
164542
164728
164717
164547
164079
163197
162099
161460
161350
161370
161483
161664
161783
161756
161638
161354
160729
159629
158162
156867
156289
156192
156217
156343
156697
157408
158496
159853
161317
162768
164151
165456
166695
167852
168910
169902
170921
171965
172922
173794
174639
175534
176561
177842
179600
182184
185659
188335
188780
188520
186706
180469
167576
155045
151109
150848
150849
150871
150919
150983
151041
151085
151119
151152
151187
151226
151268
151310
151353
151394
151436
151477
151519
151562
151605
151649
151694
151738
151784
151829
151875
151921
151968
152016
152064
152113
152162
152211
152261
152311
152362
152413
152465
152518
152572
152626
152680
152735
152791
152847
152904
152962
153021
153080
153140
153200
153260
153322
153385
153449
153513
153579
153645
153711
153778
153847
153916
153987
154058
154129
154201
154274
154351
154435
154523
154609
154682
154736
154774
154806
154852
154933
155057
155209
155364
155503
155616
155711
155796
155881
155969
156061
156155
156250
156347
156446
156546
156648
156751
156857
156965
157075
157188
157302
157421
157529
157723
1.5846e+07
821279
196301
200175
178276
139096
102323
98634.1
100388
107456
118072
131101
146079
163591
183422
200041
207454
209666
209816
205138
173060
123195
114350
116030
121395
128639
135569
141862
147950
154184
160681
167613
176054
188342
201281
204951
203077
183805
141430
127132
127828
132249
138545
144155
148729
152748
156711
160829
165438
171466
180820
194255
198809
193458
167161
139418
135862
137813
143636
149948
154481
157457
160048
163410
169121
178916
191261
192644
184032
159185
141878
140760
143572
149803
155485
158983
161766
166241
174932
186664
186213
175897
154798
143731
143844
149284
157015
165748
176691
183096
176854
160879
148776
148027
158372
175432
175927
167177
158022
157135
163106
167094
166280
163391
162330
162910
164110
164312
163881
163098
162976
163091
163248
163306
163326
163391
163501
163544
163491
163437
163449
163534
163771
164194
164739
165143
165260
165218
165028
164666
164298
164179
164240
164457
164721
164827
164749
164423
163819
163333
163278
163377
163660
164097
164405
164464
164354
163991
163250
162324
161772
161661
161666
161743
161838
161867
161794
161647
161304
160605
159462
158082
156997
156518
156422
156453
156626
157065
157880
159072
160527
162084
163615
165038
166306
167381
168290
169091
169892
170673
171339
171928
172541
173272
174181
175317
176765
178718
181516
185273
188384
189038
188837
187192
181258
168512
155511
151163
150850
150851
150872
150919
150983
151041
151084
151119
151152
151187
151226
151268
151310
151353
151394
151435
151477
151519
151562
151605
151649
151694
151738
151784
151829
151875
151921
151969
152016
152064
152113
152162
152211
152261
152311
152362
152413
152465
152518
152572
152626
152680
152735
152791
152847
152904
152962
153021
153080
153140
153200
153261
153322
153385
153449
153514
153579
153645
153711
153778
153847
153916
153987
154058
154129
154201
154274
154351
154435
154523
154609
154682
154736
154773
154806
154852
154933
155057
155209
155364
155502
155616
155710
155796
155881
155969
156060
156154
156250
156347
156446
156546
156648
156752
156858
156965
157075
157187
157301
157421
157528
157722
1.5846e+07
820629
196257
200121
178015
138518
101998
98409.2
100203
107313
118014
131183
146415
164323
184436
200806
207932
210109
210177
205108
171786
122495
114400
116150
121569
128820
135763
142088
148211
154475
160985
167907
176323
188597
201427
204960
203011
183577
141210
127091
127800
132227
138526
144145
148731
152771
156772
160925
165514
171483
180787
194154
198519
192980
166525
139066
135646
137688
143619
150033
154657
157776
160548
163986
169710
179577
191626
192550
182893
157448
141319
140493
143524
149805
155381
158860
161806
166685
175894
187280
186101
174697
153332
143299
143746
149419
157179
166043
177337
183415
176655
159715
148208
148025
159424
176501
175909
166763
158002
157495
163665
166987
165902
162915
162068
162756
163931
164075
163593
162950
162955
163181
163472
163594
163663
163765
163873
163854
163711
163510
163413
163443
163594
163910
164358
164751
164915
164906
164759
164525
164384
164405
164564
164905
165227
165321
165229
164882
164147
163300
162986
163020
163215
163594
163959
164091
164027
163743
163152
162425
162022
161931
161925
161953
161964
161910
161814
161625
161239
160541
159484
158270
157354
156958
156848
156890
157122
157663
158595
159888
161406
162982
164472
165763
166818
167635
168315
168985
169579
170014
170357
170736
171262
172016
173036
174338
175972
178100
181050
184991
188438
189286
189130
187622
181964
169389
155979
151223
150853
150853
150873
150920
150983
151040
151084
151119
151152
151187
151226
151268
151311
151353
151394
151435
151477
151519
151562
151605
151649
151694
151738
151784
151829
151875
151921
151969
152016
152064
152113
152162
152211
152261
152311
152362
152413
152465
152518
152572
152626
152680
152735
152791
152847
152904
152962
153021
153080
153140
153200
153261
153322
153385
153449
153514
153579
153645
153711
153778
153847
153916
153987
154058
154129
154201
154274
154351
154435
154523
154609
154682
154736
154773
154806
154852
154933
155057
155209
155364
155502
155616
155710
155796
155880
155968
156060
156154
156250
156347
156446
156547
156649
156753
156858
156966
157075
157187
157301
157421
157528
157722
1.58435e+07
820311
195655
199379
177180
137829
101939
98467.1
100287
107425
118172
131421
146780
164872
185102
201279
208148
210223
210241
204870
170805
122160
114586
116370
121814
129076
136043
142404
148564
154856
161376
168281
176633
188833
201558
204910
202947
183697
141371
127177
127863
132248
138540
144184
148802
152882
156922
161073
165548
171323
180433
193641
198133
192746
166665
139032
135441
137485
143467
150039
154859
158072
160798
164135
169800
179619
191349
191959
182051
156743
141134
140357
143432
149739
155340
158922
162039
167180
176602
187319
185583
173447
152281
143104
143759
149531
157300
166325
177925
183538
176247
158586
147867
148406
161046
177648
175514
165879
157969
158088
164413
166863
165431
162417
161837
162638
163729
163794
163267
162812
162900
163269
163686
163857
163958
164092
164206
164174
163992
163672
163384
163353
163424
163631
163944
164253
164445
164514
164508
164510
164538
164666
164961
165397
165697
165748
165639
165286
164516
163426
162737
162675
162785
163055
163376
163552
163543
163329
162893
162424
162224
162170
162158
162134
162068
161970
161830
161598
161195
160532
159603
158634
157956
157628
157510
157571
157872
158525
159576
160946
162457
163909
165142
166110
166827
167467
168062
168525
168806
168985
169192
169539
170118
170993
172180
173661
175450
177692
180720
184766
188473
189505
189386
187994
182586
170199
156441
151287
150856
150855
150874
150920
150982
151040
151084
151119
151152
151187
151226
151268
151311
151353
151394
151435
151477
151519
151562
151605
151649
151694
151738
151784
151829
151875
151921
151968
152016
152064
152113
152162
152211
152261
152311
152362
152413
152465
152518
152572
152626
152680
152735
152791
152847
152904
152962
153021
153080
153140
153200
153261
153323
153385
153449
153514
153579
153645
153711
153779
153847
153916
153987
154058
154129
154201
154274
154351
154435
154523
154609
154682
154736
154774
154806
154852
154933
155057
155209
155364
155502
155616
155710
155795
155880
155968
156060
156154
156250
156348
156446
156547
156649
156753
156858
156966
157075
157187
157301
157420
157528
157722
1.58415e+07
821116
195043
198669
176497
137298
102089
98786.2
100634
107818
118586
131844
147185
165248
185452
201465
208086
209937
209890
204345
170259
122237
114852
116630
122071
129349
136351
142745
148935
155255
161787
168655
176904
188992
201647
204810
202906
184107
141905
127427
128063
132370
138646
144312
148950
153032
157053
161160
165530
171088
179808
192695
197586
192737
167633
139505
135414
137311
143208
149820
154751
158056
160782
164020
169431
178856
190420
191143
181762
157229
141341
140417
143370
149677
155438
159204
162437
167622
176905
186793
184660
172235
151675
143160
143919
149676
157461
166678
178508
183589
175837
157762
147879
149107
162882
178277
174676
164780
158154
159054
165222
166647
164818
161919
161633
162561
163509
163476
162932
162679
162842
163372
163888
164087
164201
164350
164496
164477
164303
163930
163459
163219
163225
163321
163489
163687
163884
164076
164268
164462
164676
164969
165406
165877
166099
166109
165981
165621
164863
163689
162647
162348
162372
162509
162694
162822
162852
162744
162532
162403
162375
162378
162370
162308
162197
162047
161846
161568
161153
160548
159809
159184
158782
158546
158448
158540
158918
159675
160810
162174
163518
164617
165421
165999
166533
167022
167388
167584
167685
167805
168046
168492
169221
170278
171642
173256
175127
177413
180464
184564
188480
189691
189603
188310
183127
170934
156885
151353
150859
150857
150875
150920
150982
151039
151083
151118
151152
151187
151227
151268
151311
151353
151394
151435
151477
151519
151562
151605
151649
151694
151738
151784
151829
151875
151921
151968
152016
152064
152113
152162
152211
152261
152311
152361
152413
152465
152518
152572
152626
152680
152735
152791
152847
152905
152962
153021
153080
153140
153200
153261
153323
153385
153449
153514
153579
153645
153711
153779
153847
153916
153987
154058
154129
154200
154273
154351
154435
154523
154609
154682
154736
154774
154806
154852
154934
155057
155209
155365
155502
155616
155710
155795
155880
155968
156059
156154
156250
156347
156446
156547
156649
156753
156859
156966
157075
157187
157301
157421
157528
157722
1.584e+07
822022
194956
198600
176281
136884
102294
99215.7
101092
108336
119107
132301
147481
165360
185489
201330
207650
209204
209102
203651
170402
122725
115143
116864
122253
129530
136559
142982
149203
155555
162108
168947
177088
189051
201707
204813
203074
184859
142717
127782
128352
132565
138826
144518
149158
153192
157123
161129
165375
170712
178984
191505
196889
192844
169361
140564
135610
137241
142916
149483
154460
157862
160667
163827
168809
177473
188914
190044
181809
158576
141975
140707
143446
149698
155655
159603
162836
167799
176656
185634
183304
171166
151567
143473
144224
149886
157703
167130
179047
183339
175204
157086
148112
149932
164492
178223
173780
163871
158702
160305
165781
166269
164078
161523
161471
162523
163263
163135
162634
162545
162810
163508
164083
164287
164402
164560
164743
164746
164596
164222
163626
163114
162961
162950
163004
163126
163335
163636
163999
164381
164790
165272
165830
166269
166404
166383
166237
165867
165133
163993
162761
162077
161943
161930
161943
161953
161969
162038
162192
162383
162521
162585
162578
162502
162351
162131
161859
161511
161060
160534
160122
159905
159775
159695
159698
159877
160350
161172
162272
163414
164313
164880
165251
165585
165891
166125
166254
166328
166436
166655
167054
167701
168651
169901
171376
173030
174909
177195
180243
184375
188463
189843
189783
188576
183593
171588
157301
151420
150862
150859
150876
150920
150981
151039
151083
151118
151151
151187
151227
151268
151311
151353
151394
151435
151477
151519
151562
151605
151649
151694
151738
151784
151829
151875
151921
151968
152016
152064
152113
152162
152211
152261
152311
152361
152413
152465
152518
152572
152626
152680
152735
152791
152847
152905
152963
153021