/*--------------------------------*- C++ -*----------------------------------*\
| =========                 |                                                 |
| \\      /  F ield         | OpenFOAM: The Open Source CFD Toolbox           |
|  \\    /   O peration     | Version:  2306                                  |
|   \\  /    A nd           | Website:  www.openfoam.com                      |
|    \\/     M anipulation  |                                                 |
\*---------------------------------------------------------------------------*/
FoamFile
{
    version     2.0;
    format      ascii;
    arch        "LSB;label=32;scalar=64";
    class       volVectorField;
    location    "0.05";
    object      U;
}
// * * * * * * * * * * * * * * * * * * * * * * * * * * * * * * * * * * * * * //

dimensions      [0 1 -1 0 0 0 0];

internalField   nonuniform List<vector> 
6000
(
(-2551.49 0.171847 0)
(-712.228 -0.189875 0)
(311.703 0.0694335 0)
(253.102 0.389939 0)
(227.958 0.412222 0)
(28.8414 0.0699132 0)
(-230.504 -0.401917 0)
(-267.73 -0.0661479 0)
(-248.967 0.00998227 0)
(-202.156 0.14362 0)
(-128.853 0.446815 0)
(-46.3424 0.360397 0)
(41.5906 0.0495799 0)
(136.926 -0.421771 0)
(234.521 -0.821626 0)
(304.549 -1.35746 0)
(328.853 -1.76264 0)
(336.521 -1.88199 0)
(339.29 -1.80928 0)
(318.944 -1.36769 0)
(184.432 -0.970698 0)
(-95.3474 -0.557012 0)
(-164.053 -0.363796 0)
(-154.664 -0.305013 0)
(-122.138 -0.19677 0)
(-76.2041 -0.0620439 0)
(-32.1604 0.0337857 0)
(6.71323 0.0854805 0)
(42.6853 0.0709604 0)
(77.8995 0.0713878 0)
(113.064 0.0862462 0)
(148.68 0.0871243 0)
(189.082 0.135038 0)
(244.126 0.172914 0)
(303.406 0.0886493 0)
(323.054 -0.166179 0)
(316.927 -0.466866 0)
(256.536 -0.766689 0)
(46.1206 -0.974187 0)
(-71.1202 -1.1925 0)
(-73.6869 -1.2894 0)
(-49.6725 -1.30976 0)
(-11.4116 -1.29348 0)
(24.0636 -1.25323 0)
(51.2982 -1.16137 0)
(74.0933 -0.982554 0)
(94.86 -0.681849 0)
(115.059 -0.0789395 0)
(135.303 0.736147 0)
(158.374 1.43396 0)
(188.982 1.91411 0)
(235.741 2.06605 0)
(270.856 1.98689 0)
(270.123 1.7146 0)
(228.115 0.915092 0)
(95.3889 -0.189546 0)
(11.6807 -0.633583 0)
(4.95399 -0.585199 0)
(20.5909 -0.472757 0)
(50.8508 -0.323891 0)
(80.3718 -0.130734 0)
(101.53 0.128221 0)
(115.639 0.482679 0)
(126.695 0.97384 0)
(137.776 1.5731 0)
(153.518 1.87187 0)
(181.842 1.93051 0)
(211.319 1.84488 0)
(217.851 1.65332 0)
(186.813 1.19112 0)
(109.88 0.258912 0)
(52.4714 -0.196547 0)
(40.1677 -0.271197 0)
(53.8127 -0.281381 0)
(81.5112 -0.25803 0)
(108.088 -0.314955 0)
(125.192 -0.332022 0)
(136.211 -0.291487 0)
(149.632 -0.0873291 0)
(170.973 0.0696815 0)
(185.199 0.0399628 0)
(176.168 -0.136887 0)
(136.021 -0.444635 0)
(92.4545 -0.582843 0)
(72.176 -0.530331 0)
(80.4325 -0.413291 0)
(101.966 -0.0810639 0)
(126.847 0.261559 0)
(151.594 0.418863 0)
(165.74 0.4753 0)
(155.653 0.433977 0)
(125.966 0.315141 0)
(97.2959 0.196436 0)
(93.0054 0.0655971 0)
(112.695 -0.10365 0)
(136.606 -0.229373 0)
(137.11 -0.23546 0)
(124.75 -0.246929 0)
(114.949 -0.271938 0)
(116.095 -0.272633 0)
(125.87 -0.253652 0)
(131.849 -0.216984 0)
(130.818 -0.205572 0)
(128.216 -0.19922 0)
(127.356 -0.193166 0)
(128.244 -0.19228 0)
(130.086 -0.19301 0)
(130.632 -0.191767 0)
(130.385 -0.189086 0)
(129.453 -0.180829 0)
(128.258 -0.170803 0)
(127.177 -0.159782 0)
(125.977 -0.139506 0)
(124.692 -0.104295 0)
(124.083 -0.0589439 0)
(123.95 -0.0206176 0)
(124.12 0.0187241 0)
(124.78 0.0433817 0)
(125.726 0.0495982 0)
(126.771 0.0433748 0)
(127.904 0.0159564 0)
(129.249 -0.0240265 0)
(130.759 -0.0656339 0)
(131.929 -0.096795 0)
(132.369 -0.115867 0)
(132.443 -0.130489 0)
(132.426 -0.142409 0)
(132.358 -0.156866 0)
(132.178 -0.1679 0)
(131.745 -0.172227 0)
(130.798 -0.163369 0)
(129.004 -0.131826 0)
(126.42 -0.0921737 0)
(124.302 -0.0512645 0)
(123.699 -0.010276 0)
(123.674 0.0164321 0)
(123.86 0.0352231 0)
(124.521 0.0344734 0)
(125.961 0.0169565 0)
(128.115 -0.0150601 0)
(130.072 -0.0460261 0)
(130.855 -0.0675799 0)
(130.95 -0.0796122 0)
(130.902 -0.089898 0)
(130.709 -0.102999 0)
(130.178 -0.115194 0)
(129.131 -0.12391 0)
(127.482 -0.126238 0)
(125.337 -0.119637 0)
(123.076 -0.0988878 0)
(121.321 -0.0557434 0)
(120.446 0.0230547 0)
(120.172 0.120552 0)
(120.108 0.21011 0)
(120.103 0.284594 0)
(120.202 0.341418 0)
(120.556 0.377247 0)
(121.322 0.404859 0)
(122.378 0.425098 0)
(123.276 0.404218 0)
(123.655 0.311953 0)
(123.662 0.185272 0)
(123.473 0.0064419 0)
(122.966 -0.195888 0)
(121.77 -0.347705 0)
(119.963 -0.423728 0)
(118.302 -0.445569 0)
(117.462 -0.435029 0)
(117.279 -0.384927 0)
(117.305 -0.319904 0)
(117.475 -0.21558 0)
(117.824 -0.0588507 0)
(118.599 0.135878 0)
(119.997 0.312278 0)
(121.97 0.437158 0)
(124.284 0.49935 0)
(126.721 0.511969 0)
(129.253 0.510672 0)
(131.953 0.509025 0)
(134.92 0.507172 0)
(138.229 0.503106 0)
(141.886 0.493302 0)
(145.801 0.47201 0)
(149.818 0.425337 0)
(153.812 0.324331 0)
(157.751 0.150435 0)
(161.501 -0.0640237 0)
(164.443 -0.227079 0)
(165.783 -0.287517 0)
(166.023 -0.312932 0)
(166.024 -0.331655 0)
(165.564 -0.342238 0)
(163.64 -0.313625 0)
(157.792 -0.22623 0)
(143.864 -0.122408 0)
(122.564 -0.0484595 0)
(108.291 -0.00815379 0)
(105.564 -0.000402735 0)
(105.471 -0.000111512 0)
(105.479 -3.71482e-05 0)
(105.521 -3.30976e-05 0)
(105.604 -6.38583e-05 0)
(105.71 -6.6896e-05 0)
(105.81 -4.22103e-05 0)
(105.89 -2.46461e-05 0)
(105.954 -1.96737e-05 0)
(106.012 -2.38416e-05 0)
(106.073 -3.21521e-05 0)
(106.139 -3.89014e-05 0)
(106.209 -4.07508e-05 0)
(106.282 -3.80569e-05 0)
(106.355 -3.71395e-05 0)
(106.427 -3.86674e-05 0)
(106.499 -4.05622e-05 0)
(106.571 -4.05683e-05 0)
(106.644 -3.79916e-05 0)
(106.719 -3.4799e-05 0)
(106.794 -3.53049e-05 0)
(106.869 -3.46757e-05 0)
(106.945 -3.03951e-05 0)
(107.022 -2.66528e-05 0)
(107.1 -2.49541e-05 0)
(107.179 -2.27039e-05 0)
(107.26 -1.72387e-05 0)
(107.34 -1.1374e-05 0)
(107.422 -5.96718e-06 0)
(107.504 -7.84218e-06 0)
(107.586 -1.59663e-05 0)
(107.669 -2.54929e-05 0)
(107.753 -3.08671e-05 0)
(107.839 -3.15593e-05 0)
(107.925 -2.8531e-05 0)
(108.013 -2.73925e-05 0)
(108.101 -2.87952e-05 0)
(108.189 -3.11579e-05 0)
(108.279 -3.39416e-05 0)
(108.369 -3.30079e-05 0)
(108.46 -3.0395e-05 0)
(108.553 -2.48954e-05 0)
(108.647 -1.82384e-05 0)
(108.743 -1.16207e-05 0)
(108.839 -3.58679e-06 0)
(108.936 9.07636e-07 0)
(109.034 2.78495e-06 0)
(109.132 8.47849e-07 0)
(109.232 -2.77097e-07 0)
(109.334 3.00066e-06 0)
(109.437 4.75757e-06 0)
(109.541 5.34601e-06 0)
(109.647 4.44212e-06 0)
(109.753 4.90909e-06 0)
(109.861 1.22126e-07 0)
(109.969 2.41519e-06 0)
(110.078 8.84152e-07 0)
(110.189 6.67434e-06 0)
(110.302 1.10018e-05 0)
(110.417 1.92138e-05 0)
(110.533 2.65195e-05 0)
(110.65 3.75722e-05 0)
(110.768 4.53114e-05 0)
(110.887 5.39267e-05 0)
(111.009 6.78502e-05 0)
(111.134 7.641e-05 0)
(111.261 7.43257e-05 0)
(111.389 8.3494e-05 0)
(111.513 9.06988e-05 0)
(111.63 0.000102957 0)
(111.742 9.71265e-05 0)
(111.862 0.000128555 0)
(112.008 0.000122 0)
(112.191 0.000132978 0)
(112.405 0.000101514 0)
(112.631 8.94113e-05 0)
(112.84 0.000113261 0)
(112.992 0.000135084 0)
(113.074 0.000161088 0)
(113.111 0.000101493 0)
(113.148 1.68604e-05 0)
(113.22 -9.33926e-05 0)
(113.337 -0.000113684 0)
(113.491 -8.95875e-05 0)
(113.665 -9.19241e-05 0)
(113.846 -0.000147984 0)
(114.026 -0.000206484 0)
(114.205 -0.000220889 0)
(114.386 -0.000202785 0)
(114.569 -0.0001571 0)
(114.754 -0.000139014 0)
(114.943 -0.000122282 0)
(115.134 -0.000119894 0)
(115.327 -9.53341e-05 0)
(115.523 -6.44625e-05 0)
(115.722 -4.75381e-05 0)
(115.922 -5.65921e-05 0)
(116.125 -5.71559e-05 0)
(116.331 -0.000124707 0)
(116.539 -0.000133574 0)
(116.755 -0.000193303 0)
(116.95 -0.000150289 0)
(117.29 -0.000144759 0)
(-2551 0.844112 0)
(-711.69 -0.813798 0)
(312.679 0.451077 0)
(253.469 1.09468 0)
(227.28 2.07414 0)
(25.237 1.56028 0)
(-231.709 -1.40409 0)
(-267.183 -0.773146 0)
(-248.196 -0.57371 0)
(-201.358 0.442548 0)
(-128.56 1.41934 0)
(-46.6894 2.02159 0)
(40.4825 2.60523 0)
(134.378 2.10575 0)
(230.832 -0.10952 0)
(302.315 -3.02736 0)
(328.919 -5.00871 0)
(337.355 -6.01575 0)
(340.262 -6.89008 0)
(320.31 -7.77169 0)
(188.305 -6.50904 0)
(-92.7116 -2.53767 0)
(-164.072 -1.61423 0)
(-154.781 -1.51623 0)
(-122.163 -1.41051 0)
(-76.1164 -1.17404 0)
(-32.0511 -0.959762 0)
(6.82634 -0.786808 0)
(42.8327 -0.730292 0)
(78.1282 -0.715994 0)
(113.402 -0.615028 0)
(149.071 -0.332588 0)
(189.454 0.0289472 0)
(244.472 0.431373 0)
(303.51 0.675392 0)
(322.89 0.459504 0)
(316.548 0.149514 0)
(255.533 -0.578349 0)
(44.7872 -1.94098 0)
(-71.6484 -2.96636 0)
(-74.1836 -3.46997 0)
(-50.0742 -3.70238 0)
(-11.8895 -3.75902 0)
(23.4074 -3.78322 0)
(50.5217 -3.79289 0)
(73.3359 -3.72533 0)
(94.3728 -3.49093 0)
(115.083 -2.88668 0)
(135.983 -1.8427 0)
(159.682 -0.285274 0)
(190.757 1.73829 0)
(237.588 4.21709 0)
(272.009 6.42662 0)
(269.86 7.02219 0)
(225.254 6.07589 0)
(90.2334 2.10598 0)
(10.1484 -1.02895 0)
(4.35753 -1.54891 0)
(20.5805 -1.5159 0)
(51.0302 -0.974547 0)
(80.2822 -0.422179 0)
(101.249 -0.102813 0)
(115.384 -0.0131564 0)
(126.741 0.0452712 0)
(138.59 0.502942 0)
(155.188 1.65985 0)
(184.092 3.2959 0)
(213.326 5.28788 0)
(218.144 5.81296 0)
(185.853 5.12027 0)
(106.755 2.47386 0)
(51.0725 -0.0739721 0)
(39.812 -0.827011 0)
(54.031 -0.951203 0)
(81.7788 -0.695623 0)
(107.786 -0.774471 0)
(124.654 -1.30678 0)
(136.181 -1.64191 0)
(150.469 -1.41953 0)
(172.335 -0.56203 0)
(186.095 0.473326 0)
(176.033 0.708969 0)
(134.703 0.125753 0)
(91.2043 -1.07841 0)
(71.615 -1.45523 0)
(80.3201 -1.21755 0)
(102.128 -0.545584 0)
(127.07 0.195775 0)
(151.827 0.856899 0)
(165.903 1.16413 0)
(155.746 0.975657 0)
(126.074 0.643991 0)
(97.4272 0.157648 0)
(93.1177 -0.219546 0)
(112.766 -0.640205 0)
(136.921 -0.906816 0)
(137.57 -0.792404 0)
(124.969 -0.630411 0)
(114.883 -0.618283 0)
(115.986 -0.703179 0)
(125.88 -0.735108 0)
(131.896 -0.594588 0)
(130.793 -0.467544 0)
(128.09 -0.351534 0)
(127.191 -0.32123 0)
(128.079 -0.314192 0)
(129.934 -0.29261 0)
(130.484 -0.259184 0)
(130.232 -0.241061 0)
(129.277 -0.273614 0)
(128.086 -0.357207 0)
(127.057 -0.424675 0)
(125.929 -0.442304 0)
(124.723 -0.390678 0)
(124.169 -0.273451 0)
(124.048 -0.16617 0)
(124.233 -0.0465714 0)
(124.876 0.0761348 0)
(125.786 0.165136 0)
(126.786 0.212448 0)
(127.861 0.215126 0)
(129.142 0.159601 0)
(130.61 0.0579424 0)
(131.787 -0.0578276 0)
(132.239 -0.156802 0)
(132.316 -0.237573 0)
(132.294 -0.307099 0)
(132.222 -0.385751 0)
(132.053 -0.463826 0)
(131.647 -0.532996 0)
(130.747 -0.58147 0)
(129.02 -0.586808 0)
(126.511 -0.503322 0)
(124.423 -0.349348 0)
(123.809 -0.202761 0)
(123.786 -0.112187 0)
(123.968 -0.000897563 0)
(124.584 0.0901678 0)
(125.953 0.12747 0)
(128.027 0.0953847 0)
(129.951 0.00282129 0)
(130.741 -0.086178 0)
(130.836 -0.146564 0)
(130.787 -0.194138 0)
(130.593 -0.251575 0)
(130.069 -0.30378 0)
(129.03 -0.346676 0)
(127.384 -0.375829 0)
(125.237 -0.395247 0)
(122.985 -0.405544 0)
(121.275 -0.39273 0)
(120.486 -0.331285 0)
(120.295 -0.214102 0)
(120.284 -0.081189 0)
(120.339 0.0745766 0)
(120.522 0.26432 0)
(120.968 0.507925 0)
(121.775 0.802962 0)
(122.8 1.10699 0)
(123.507 1.30294 0)
(123.639 1.2663 0)
(123.524 1.11681 0)
(123.201 0.873371 0)
(122.45 0.538154 0)
(121.092 0.0547662 0)
(119.286 -0.499656 0)
(117.786 -0.972096 0)
(117.163 -1.20527 0)
(117.092 -1.23688 0)
(117.184 -1.19266 0)
(117.416 -1.06467 0)
(117.932 -0.855269 0)
(118.909 -0.569467 0)
(120.423 -0.21552 0)
(122.422 0.13892 0)
(124.731 0.437878 0)
(127.194 0.676689 0)
(129.738 0.869205 0)
(132.419 1.026 0)
(135.344 1.15184 0)
(138.6 1.24841 0)
(142.208 1.31975 0)
(146.085 1.37771 0)
(150.054 1.43201 0)
(153.906 1.43008 0)
(157.517 1.23903 0)
(160.888 0.738511 0)
(163.78 0.0410333 0)
(165.447 -0.509509 0)
(165.85 -0.762726 0)
(165.91 -0.900422 0)
(165.531 -1.06402 0)
(163.742 -1.18444 0)
(158.113 -1.19819 0)
(144.485 -0.95068 0)
(123.187 -0.437801 0)
(108.487 -0.0743271 0)
(105.575 -0.00295973 0)
(105.471 -0.000427039 0)
(105.478 -0.000377689 0)
(105.52 -0.000410109 0)
(105.603 -0.000452997 0)
(105.709 -0.000325943 0)
(105.81 -7.07283e-05 0)
(105.889 0.000125287 0)
(105.953 0.000165135 0)
(106.011 9.60066e-05 0)
(106.072 -2.89157e-06 0)
(106.138 -7.17595e-05 0)
(106.208 -8.95082e-05 0)
(106.281 -7.13709e-05 0)
(106.354 -4.43203e-05 0)
(106.426 -2.877e-05 0)
(106.498 -2.86418e-05 0)
(106.57 -3.54229e-05 0)
(106.643 -4.01692e-05 0)
(106.718 -4.07211e-05 0)
(106.793 -3.79307e-05 0)
(106.868 -3.51445e-05 0)
(106.944 -3.34858e-05 0)
(107.021 -3.07736e-05 0)
(107.099 -2.63235e-05 0)
(107.178 -2.15481e-05 0)
(107.258 -1.7409e-05 0)
(107.339 -1.31709e-05 0)
(107.421 -1.04548e-05 0)
(107.502 -8.93666e-06 0)
(107.585 -1.19297e-05 0)
(107.668 -2.42757e-05 0)
(107.752 -4.71715e-05 0)
(107.838 -7.49636e-05 0)
(107.924 -0.000100598 0)
(108.012 -0.000116449 0)
(108.1 -0.00011917 0)
(108.188 -0.00010839 0)
(108.278 -8.72658e-05 0)
(108.368 -6.37087e-05 0)
(108.459 -4.128e-05 0)
(108.552 -2.02159e-05 0)
(108.646 1.52691e-06 0)
(108.741 2.44528e-05 0)
(108.838 4.72207e-05 0)
(108.935 6.89154e-05 0)
(109.033 8.45133e-05 0)
(109.131 9.16122e-05 0)
(109.231 8.81938e-05 0)
(109.333 7.28351e-05 0)
(109.435 4.67812e-05 0)
(109.54 9.4318e-06 0)
(109.646 -3.73294e-05 0)
(109.752 -8.93256e-05 0)
(109.859 -0.000137988 0)
(109.968 -0.000179481 0)
(110.077 -0.000204825 0)
(110.188 -0.000214101 0)
(110.301 -0.00021032 0)
(110.416 -0.000195669 0)
(110.532 -0.000173192 0)
(110.649 -0.000145598 0)
(110.767 -0.000113313 0)
(110.886 -7.37294e-05 0)
(111.008 -2.75013e-05 0)
(111.133 2.24077e-05 0)
(111.26 7.31812e-05 0)
(111.388 0.000125479 0)
(111.512 0.000182725 0)
(111.628 0.00024593 0)
(111.741 0.000316791 0)
(111.861 0.000381641 0)
(112.007 0.000441596 0)
(112.189 0.000474858 0)
(112.403 0.000480927 0)
(112.63 0.000458227 0)
(112.838 0.000411247 0)
(112.991 0.000365495 0)
(113.072 0.000283101 0)
(113.109 0.000128825 0)
(113.146 -0.000159781 0)
(113.218 -0.000459068 0)
(113.336 -0.000697447 0)
(113.49 -0.000862172 0)
(113.664 -0.000913549 0)
(113.845 -0.000841232 0)
(114.025 -0.000691995 0)
(114.205 -0.000447637 0)
(114.385 -0.000149068 0)
(114.568 0.000135656 0)
(114.754 0.000378672 0)
(114.942 0.000584586 0)
(115.133 0.000765889 0)
(115.326 0.000852807 0)
(115.522 0.000787493 0)
(115.72 0.000591311 0)
(115.921 0.000281435 0)
(116.124 -2.34936e-05 0)
(116.33 -0.000211279 0)
(116.538 -0.000334463 0)
(116.754 -0.000367981 0)
(116.949 -0.000201358 0)
(117.289 -0.000104044 0)
(-2549.49 0.857708 0)
(-710.466 -1.51562 0)
(313.568 -2.18025 0)
(253.691 -1.62247 0)
(226.28 0.924947 0)
(20.3743 0.518159 0)
(-233.494 -2.35482 0)
(-266.471 -1.00737 0)
(-247.005 -0.464099 0)
(-199.963 0.80995 0)
(-127.433 2.13857 0)
(-46.0977 2.86342 0)
(39.9069 2.93751 0)
(132.075 1.51587 0)
(227.21 -1.32566 0)
(299.836 -4.64355 0)
(328.557 -6.8861 0)
(337.619 -7.88626 0)
(340.833 -8.6453 0)
(322.039 -8.99302 0)
(194.164 -7.10165 0)
(-88.5043 -2.95888 0)
(-164.436 -2.0088 0)
(-155.197 -2.04907 0)
(-122.31 -1.98548 0)
(-75.9279 -1.68356 0)
(-31.8163 -1.39458 0)
(6.94974 -1.21088 0)
(42.8802 -1.178 0)
(78.2364 -1.21707 0)
(113.692 -1.1285 0)
(149.519 -0.87643 0)
(190.041 -0.465329 0)
(245.139 0.138742 0)
(303.681 0.707286 0)
(322.767 0.852806 0)
(316.092 0.91747 0)
(253.29 0.277869 0)
(41.3798 -2.17183 0)
(-72.6122 -4.15932 0)
(-74.8821 -4.93264 0)
(-50.3365 -5.30524 0)
(-12.0526 -5.29481 0)
(22.9845 -5.17472 0)
(50.0916 -5.00441 0)
(73.0593 -4.65874 0)
(94.3829 -4.15558 0)
(115.367 -3.52268 0)
(136.5 -2.5808 0)
(160.712 -1.29224 0)
(192.974 0.870428 0)
(240.327 4.62199 0)
(273.292 8.44957 0)
(268.713 10.3942 0)
(219.041 9.64445 0)
(79.9059 3.4677 0)
(7.2926 -1.273 0)
(3.29892 -2.28034 0)
(20.9284 -2.32428 0)
(52.0348 -1.38789 0)
(81.0462 -0.276414 0)
(101.566 0.51478 0)
(115.486 0.884016 0)
(126.933 1.0641 0)
(139.522 1.15934 0)
(157.487 1.94027 0)
(188.167 4.23823 0)
(217.219 7.3852 0)
(218.503 8.91238 0)
(183.471 8.17143 0)
(100.552 3.89807 0)
(48.5899 -0.104531 0)
(39.5734 -1.30974 0)
(55.0142 -1.51323 0)
(83.0053 -1.09607 0)
(108.226 -1.01274 0)
(124.292 -1.60755 0)
(135.853 -2.38807 0)
(151.297 -2.58441 0)
(174.41 -1.59624 0)
(188.108 0.0878756 0)
(175.979 0.965721 0)
(132.371 0.361456 0)
(88.5544 -1.45355 0)
(70.453 -2.17578 0)
(80.1986 -1.84085 0)
(102.663 -0.73371 0)
(127.695 0.318784 0)
(152.523 1.34272 0)
(166.667 1.82054 0)
(156.554 1.66586 0)
(126.941 1.31962 0)
(98.1275 0.723415 0)
(93.4958 0.0823979 0)
(112.916 -0.799838 0)
(137.632 -1.60432 0)
(138.802 -1.48946 0)
(125.841 -1.1664 0)
(115.115 -0.946039 0)
(115.918 -0.998495 0)
(125.903 -1.11269 0)
(132.161 -0.994806 0)
(131.051 -0.816483 0)
(128.221 -0.644566 0)
(127.226 -0.59468 0)
(128.103 -0.580431 0)
(129.976 -0.54822 0)
(130.508 -0.519726 0)
(130.212 -0.505026 0)
(129.143 -0.528327 0)
(127.889 -0.615422 0)
(126.909 -0.693421 0)
(125.913 -0.689578 0)
(124.86 -0.575626 0)
(124.36 -0.394016 0)
(124.24 -0.242869 0)
(124.423 -0.0714719 0)
(125.034 0.109393 0)
(125.875 0.255032 0)
(126.774 0.331268 0)
(127.749 0.328444 0)
(128.94 0.256494 0)
(130.358 0.112001 0)
(131.571 -0.0674012 0)
(132.088 -0.224141 0)
(132.181 -0.34852 0)
(132.159 -0.460144 0)
(132.082 -0.581237 0)
(131.915 -0.699771 0)
(131.535 -0.812476 0)
(130.703 -0.90088 0)
(129.121 -0.914259 0)
(126.79 -0.783809 0)
(124.736 -0.551726 0)
(124.044 -0.338108 0)
(123.998 -0.197788 0)
(124.159 -0.0309279 0)
(124.714 0.130615 0)
(125.943 0.220389 0)
(127.848 0.175036 0)
(129.709 0.0228536 0)
(130.552 -0.132413 0)
(130.669 -0.238753 0)
(130.625 -0.321118 0)
(130.438 -0.417707 0)
(129.941 -0.501987 0)
(128.953 -0.555846 0)
(127.367 -0.575125 0)
(125.258 -0.567814 0)
(123.03 -0.552102 0)
(121.382 -0.50859 0)
(120.693 -0.390609 0)
(120.551 -0.215039 0)
(120.543 -0.0255961 0)
(120.618 0.201487 0)
(120.854 0.483717 0)
(121.38 0.847676 0)
(122.223 1.28038 0)
(123.018 1.63621 0)
(123.272 1.69153 0)
(123.226 1.60626 0)
(123.033 1.43411 0)
(122.549 1.15247 0)
(121.577 0.670219 0)
(120.038 -0.0516417 0)
(118.328 -0.881748 0)
(117.319 -1.46995 0)
(117.174 -1.66819 0)
(117.263 -1.68002 0)
(117.475 -1.57523 0)
(117.857 -1.34564 0)
(118.522 -1.00102 0)
(119.574 -0.554356 0)
(121.063 -0.0458941 0)
(122.937 0.461379 0)
(125.078 0.915069 0)
(127.388 1.29278 0)
(129.836 1.59199 0)
(132.463 1.82439 0)
(135.354 2.00053 0)
(138.586 2.12598 0)
(142.175 2.2039 0)
(146.033 2.23556 0)
(149.939 2.19214 0)
(153.595 2.02975 0)
(156.837 1.63312 0)
(159.781 0.93066 0)
(162.592 -0.0181935 0)
(164.823 -0.873657 0)
(165.6 -1.30806 0)
(165.706 -1.50219 0)
(165.378 -1.69894 0)
(163.732 -1.83544 0)
(158.433 -1.75923 0)
(145.297 -1.32598 0)
(124.099 -0.607183 0)
(108.799 -0.106265 0)
(105.594 -0.0042388 0)
(105.471 -0.000528384 0)
(105.478 -0.000557777 0)
(105.52 -0.000771848 0)
(105.602 -0.000832121 0)
(105.71 -0.000504692 0)
(105.81 -2.82916e-05 0)
(105.889 0.000248792 0)
(105.953 0.000261461 0)
(106.011 0.00012236 0)
(106.071 -3.80761e-05 0)
(106.137 -0.000135713 0)
(106.208 -0.000151306 0)
(106.281 -0.000117514 0)
(106.353 -7.82797e-05 0)
(106.426 -5.76182e-05 0)
(106.497 -5.66704e-05 0)
(106.57 -6.29502e-05 0)
(106.643 -6.70272e-05 0)
(106.717 -6.54166e-05 0)
(106.792 -5.80901e-05 0)
(106.868 -4.88518e-05 0)
(106.944 -4.03491e-05 0)
(107.021 -3.25977e-05 0)
(107.099 -2.49008e-05 0)
(107.178 -1.728e-05 0)
(107.258 -1.16901e-05 0)
(107.339 -8.38224e-06 0)
(107.42 -7.16871e-06 0)
(107.502 -1.09781e-05 0)
(107.585 -2.59952e-05 0)
(107.668 -5.30398e-05 0)
(107.752 -8.8895e-05 0)
(107.837 -0.000126759 0)
(107.924 -0.00015885 0)
(108.011 -0.000177688 0)
(108.099 -0.000179273 0)
(108.188 -0.000162259 0)
(108.277 -0.000130328 0)
(108.368 -9.00751e-05 0)
(108.459 -4.71535e-05 0)
(108.552 -1.11613e-05 0)
(108.646 1.98151e-05 0)
(108.741 4.84232e-05 0)
(108.837 7.66031e-05 0)
(108.934 0.000104441 0)
(109.032 0.000126978 0)
(109.131 0.000138225 0)
(109.231 0.000133451 0)
(109.332 0.000108147 0)
(109.435 5.98472e-05 0)
(109.539 -8.91368e-06 0)
(109.645 -9.14567e-05 0)
(109.752 -0.000178435 0)
(109.859 -0.000259501 0)
(109.967 -0.000326923 0)
(110.077 -0.000374399 0)
(110.188 -0.000397016 0)
(110.301 -0.000388711 0)
(110.415 -0.000357412 0)
(110.532 -0.000308186 0)
(110.649 -0.000242015 0)
(110.767 -0.000159839 0)
(110.886 -6.34749e-05 0)
(111.008 4.17998e-05 0)
(111.133 0.000155599 0)
(111.26 0.000275179 0)
(111.388 0.000392554 0)
(111.512 0.000510041 0)
(111.628 0.000624632 0)
(111.74 0.000736804 0)
(111.861 0.000832383 0)
(112.007 0.000912298 0)
(112.189 0.000961354 0)
(112.403 0.000978307 0)
(112.629 0.00094049 0)
(112.838 0.000835411 0)
(112.99 0.000647804 0)
(113.071 0.0003686 0)
(113.109 1.83292e-06 0)
(113.146 -0.000457183 0)
(113.217 -0.000917537 0)
(113.335 -0.00127779 0)
(113.489 -0.0015318 0)
(113.664 -0.001674 0)
(113.845 -0.00165705 0)
(114.025 -0.0013518 0)
(114.205 -0.000795131 0)
(114.385 -0.00014897 0)
(114.568 0.000387238 0)
(114.754 0.000783792 0)
(114.942 0.00105274 0)
(115.133 0.00123837 0)
(115.326 0.0012855 0)
(115.522 0.00107254 0)
(115.72 0.000709893 0)
(115.92 0.000230679 0)
(116.124 -0.000188389 0)
(116.33 -0.000393523 0)
(116.538 -0.000499165 0)
(116.754 -0.00054946 0)
(116.95 -0.000272527 0)
(117.289 -0.000123677 0)
(-2547.98 0.755541 0)
(-709.203 -0.853207 0)
(314.286 -4.88322 0)
(253.844 -5.16586 0)
(225.672 -2.76735 0)
(16.6171 -2.8589 0)
(-234.515 -3.53121 0)
(-265.218 -1.31283 0)
(-245.253 -0.311146 0)
(-197.979 1.28648 0)
(-125.695 2.64966 0)
(-45.0605 3.03289 0)
(39.6126 2.55025 0)
(129.813 0.738935 0)
(223.64 -2.05463 0)
(297.482 -5.07788 0)
(328.521 -7.13378 0)
(338.215 -7.85115 0)
(341.767 -7.99227 0)
(323.982 -7.44769 0)
(199.737 -5.51369 0)
(-84.9556 -2.35515 0)
(-165.022 -1.94212 0)
(-155.78 -2.05585 0)
(-122.523 -2.01552 0)
(-75.7841 -1.67994 0)
(-31.7255 -1.42345 0)
(6.82553 -1.3937 0)
(42.6268 -1.47176 0)
(77.9997 -1.56264 0)
(113.594 -1.55919 0)
(149.613 -1.42092 0)
(190.474 -1.06651 0)
(245.846 -0.218452 0)
(303.663 0.570125 0)
(322.985 1.08995 0)
(315.637 1.5551 0)
(250.081 1.0326 0)
(36.1277 -2.11479 0)
(-73.9871 -4.7318 0)
(-75.777 -5.70874 0)
(-50.5399 -6.10681 0)
(-12.1506 -6.05677 0)
(22.399 -5.883 0)
(49.3735 -5.64559 0)
(72.1958 -5.28456 0)
(93.49 -4.84755 0)
(114.547 -4.26316 0)
(135.889 -3.40768 0)
(160.899 -1.8411 0)
(194.933 0.822336 0)
(243.077 5.20599 0)
(274.651 10.2134 0)
(267.095 13.0289 0)
(210.211 12.0633 0)
(66.2427 3.95082 0)
(3.44354 -1.73353 0)
(2.01325 -2.92577 0)
(21.9607 -2.81371 0)
(53.7076 -1.64673 0)
(82.224 -0.456179 0)
(102.007 0.333799 0)
(115.601 0.685464 0)
(127.273 1.01146 0)
(140.611 1.74706 0)
(160.262 3.30374 0)
(193.07 6.34764 0)
(222.306 10.4723 0)
(219.541 12.3791 0)
(179.815 10.9668 0)
(92.2766 4.71579 0)
(45.6545 -0.476749 0)
(39.6876 -1.91754 0)
(56.8749 -2.08688 0)
(85.1421 -1.4055 0)
(109.205 -1.25376 0)
(124.302 -1.96043 0)
(135.914 -2.74859 0)
(152.663 -2.82925 0)
(177.312 -1.59583 0)
(191.107 0.372994 0)
(176.119 1.34425 0)
(129.368 0.335212 0)
(85.0535 -2.1349 0)
(68.9943 -3.01137 0)
(80.0693 -2.61375 0)
(103.32 -1.33434 0)
(128.527 0.316612 0)
(153.563 1.3064 0)
(167.946 2.08268 0)
(157.97 2.03954 0)
(128.353 1.6992 0)
(99.1723 0.949423 0)
(94.2264 0.21035 0)
(113.302 -0.877056 0)
(138.821 -2.10184 0)
(140.976 -2.0746 0)
(127.544 -1.60505 0)
(115.84 -1.147 0)
(116.04 -1.143 0)
(125.995 -1.33173 0)
(132.586 -1.25875 0)
(131.445 -1.07315 0)
(128.404 -0.862153 0)
(127.232 -0.783349 0)
(128.066 -0.755982 0)
(129.925 -0.71873 0)
(130.42 -0.69256 0)
(130.075 -0.693789 0)
(128.897 -0.760992 0)
(127.616 -0.884501 0)
(126.739 -0.95736 0)
(125.921 -0.91936 0)
(125.046 -0.748445 0)
(124.602 -0.495202 0)
(124.497 -0.272794 0)
(124.689 -0.0349101 0)
(125.254 0.202249 0)
(126.009 0.380293 0)
(126.802 0.477883 0)
(127.659 0.492232 0)
(128.722 0.408953 0)
(130.043 0.228887 0)
(131.272 -0.00549073 0)
(131.862 -0.22107 0)
(131.972 -0.391383 0)
(131.95 -0.544439 0)
(131.864 -0.710821 0)
(131.691 -0.877807 0)
(131.321 -1.03924 0)
(130.551 -1.17325 0)
(129.13 -1.23338 0)
(127.063 -1.14739 0)
(125.147 -0.863049 0)
(124.38 -0.520619 0)
(124.319 -0.258566 0)
(124.463 -0.00686384 0)
(124.942 0.230579 0)
(125.981 0.372134 0)
(127.615 0.336422 0)
(129.334 0.114618 0)
(130.267 -0.143757 0)
(130.438 -0.325356 0)
(130.398 -0.461272 0)
(130.221 -0.600924 0)
(129.76 -0.722579 0)
(128.838 -0.798255 0)
(127.317 -0.8082 0)
(125.226 -0.776561 0)
(122.978 -0.760746 0)
(121.431 -0.730711 0)
(120.919 -0.566962 0)
(120.857 -0.343418 0)
(120.88 -0.0676644 0)
(121.018 0.268535 0)
(121.364 0.67861 0)
(122.01 1.17539 0)
(122.805 1.66304 0)
(123.223 1.91503 0)
(123.232 1.96239 0)
(123.092 1.93802 0)
(122.672 1.75491 0)
(121.838 1.32597 0)
(120.452 0.589618 0)
(118.658 -0.397909 0)
(117.282 -1.27163 0)
(116.945 -1.69333 0)
(117.005 -1.84528 0)
(117.218 -1.94439 0)
(117.635 -1.92232 0)
(118.286 -1.71131 0)
(119.19 -1.31769 0)
(120.401 -0.779842 0)
(121.947 -0.154041 0)
(123.788 0.493183 0)
(125.839 1.10339 0)
(128.034 1.63849 0)
(130.366 2.08612 0)
(132.886 2.44823 0)
(135.677 2.72987 0)
(138.814 2.93333 0)
(142.309 3.05656 0)
(146.055 3.08176 0)
(149.759 2.96069 0)
(153.077 2.59592 0)
(155.876 1.94906 0)
(158.369 1.0374 0)
(160.969 -0.0682959 0)
(163.644 -1.16403 0)
(165.123 -1.84988 0)
(165.355 -2.10307 0)
(165.129 -2.29293 0)
(163.694 -2.41778 0)
(158.864 -2.27271 0)
(146.422 -1.70254 0)
(125.383 -0.795043 0)
(109.257 -0.146535 0)
(105.623 -0.00655781 0)
(105.471 -0.000898165 0)
(105.478 -0.000840319 0)
(105.519 -0.000965617 0)
(105.602 -0.000979619 0)
(105.71 -0.000576751 0)
(105.811 7.00723e-06 0)
(105.889 0.000336713 0)
(105.952 0.000322598 0)
(106.01 0.000126738 0)
(106.071 -7.80801e-05 0)
(106.137 -0.000190547 0)
(106.208 -0.000197113 0)
(106.281 -0.00014787 0)
(106.353 -0.00010174 0)
(106.425 -8.14278e-05 0)
(106.497 -8.55888e-05 0)
(106.57 -9.73238e-05 0)
(106.643 -0.000103509 0)
(106.717 -0.000100109 0)
(106.792 -9.01634e-05 0)
(106.868 -7.84415e-05 0)
(106.944 -6.89406e-05 0)
(107.021 -6.08211e-05 0)
(107.099 -5.18221e-05 0)
(107.178 -4.15973e-05 0)
(107.258 -3.36728e-05 0)
(107.339 -2.90648e-05 0)
(107.42 -2.96904e-05 0)
(107.502 -4.13173e-05 0)
(107.584 -6.02519e-05 0)
(107.668 -8.56404e-05 0)
(107.752 -0.000118492 0)
(107.837 -0.000154064 0)
(107.924 -0.000184457 0)
(108.011 -0.000201635 0)
(108.099 -0.000205743 0)
(108.188 -0.000193907 0)
(108.277 -0.000165824 0)
(108.368 -0.00012771 0)
(108.459 -8.61631e-05 0)
(108.552 -4.33776e-05 0)
(108.646 -2.33914e-06 0)
(108.741 3.7128e-05 0)
(108.837 7.56215e-05 0)
(108.934 0.000112645 0)
(109.032 0.000142626 0)
(109.131 0.000158524 0)
(109.231 0.000149059 0)
(109.332 0.000106271 0)
(109.435 3.55399e-05 0)
(109.539 -5.79919e-05 0)
(109.645 -0.000165128 0)
(109.751 -0.000272856 0)
(109.859 -0.000365899 0)
(109.967 -0.000435708 0)
(110.077 -0.000478442 0)
(110.188 -0.000498117 0)
(110.301 -0.00049657 0)
(110.415 -0.000462533 0)
(110.532 -0.000392478 0)
(110.649 -0.000293273 0)
(110.767 -0.000173272 0)
(110.886 -3.96233e-05 0)
(111.008 0.00010111 0)
(111.133 0.000249968 0)
(111.26 0.000406053 0)
(111.388 0.000561418 0)
(111.512 0.000717374 0)
(111.628 0.000866714 0)
(111.741 0.00100592 0)
(111.861 0.00111928 0)
(112.007 0.00120997 0)
(112.189 0.00125554 0)
(112.403 0.00124624 0)
(112.629 0.00116423 0)
(112.838 0.000988164 0)
(112.99 0.000737375 0)
(113.071 0.000405189 0)
(113.108 -3.11406e-05 0)
(113.145 -0.000577675 0)
(113.217 -0.00110144 0)
(113.334 -0.00148961 0)
(113.489 -0.00173671 0)
(113.664 -0.00188181 0)
(113.845 -0.00189111 0)
(114.026 -0.00169441 0)
(114.206 -0.00123855 0)
(114.386 -0.000581932 0)
(114.569 0.000120438 0)
(114.755 0.000741197 0)
(114.943 0.00115976 0)
(115.133 0.00138745 0)
(115.326 0.00145351 0)
(115.521 0.00128173 0)
(115.719 0.00096739 0)
(115.92 0.000503432 0)
(116.123 6.04651e-05 0)
(116.33 -0.000203569 0)
(116.538 -0.000378124 0)
(116.754 -0.000463777 0)
(116.95 -0.000275092 0)
(117.289 -0.000238339 0)
(-2547.08 1.06663 0)
(-708.456 1.09702 0)
(314.765 -5.3295 0)
(253.861 -7.15732 0)
(224.759 -6.11155 0)
(15.4163 -5.67284 0)
(-234.01 -4.59338 0)
(-263.641 -1.98364 0)
(-243.341 -0.622106 0)
(-195.876 0.946823 0)
(-123.853 2.08984 0)
(-43.8448 2.38559 0)
(39.8552 2.01871 0)
(128.829 0.572503 0)
(221.842 -1.59907 0)
(296.469 -3.92893 0)
(328.882 -4.98003 0)
(338.782 -5.00431 0)
(342.762 -4.55756 0)
(325.813 -3.56883 0)
(203.379 -2.14145 0)
(-83.4241 -1.5598 0)
(-165.809 -1.69485 0)
(-156.433 -1.82958 0)
(-122.706 -1.74209 0)
(-75.7222 -1.47395 0)
(-31.808 -1.23129 0)
(6.49432 -1.15495 0)
(42.1744 -1.16954 0)
(77.6107 -1.31067 0)
(113.366 -1.3487 0)
(149.581 -1.31707 0)
(190.842 -0.938852 0)
(246.611 0.0445699 0)
(303.821 1.02158 0)
(323.797 1.96877 0)
(315.546 2.74223 0)
(246.572 2.53612 0)
(29.8253 -1.213 0)
(-75.8262 -4.25017 0)
(-76.8967 -5.37202 0)
(-50.6732 -5.82477 0)
(-12.175 -5.80376 0)
(21.7289 -5.68617 0)
(48.4916 -5.529 0)
(70.9936 -5.30248 0)
(92.0371 -5.04645 0)
(112.934 -4.64539 0)
(134.295 -4.05644 0)
(160.192 -2.8869 0)
(196.571 -0.303342 0)
(246.064 4.5029 0)
(276.286 10.1833 0)
(265.772 13.8126 0)
(198.723 12.7907 0)
(50.7668 3.09569 0)
(-0.413974 -2.23136 0)
(0.899495 -3.34711 0)
(23.5791 -2.91663 0)
(55.857 -1.30977 0)
(83.4262 0.104958 0)
(102.056 0.74866 0)
(115.125 0.817699 0)
(127.004 0.798311 0)
(141.641 1.2843 0)
(164.191 3.20581 0)
(199.838 7.40739 0)
(229.165 12.7412 0)
(221.182 15.2566 0)
(174.418 13.0047 0)
(82.5082 4.7228 0)
(42.7463 -0.863363 0)
(40.4599 -2.29509 0)
(59.9606 -2.17063 0)
(88.1281 -1.23835 0)
(110.601 -1.07359 0)
(124.415 -1.99044 0)
(136.167 -3.01021 0)
(154.797 -3.13138 0)
(181.348 -1.57507 0)
(195.113 0.644424 0)
(176.642 1.64036 0)
(125.778 0.0806655 0)
(81.1813 -2.81368 0)
(67.4563 -3.88187 0)
(80.1051 -3.43469 0)
(104.044 -2.00382 0)
(129.266 -0.568437 0)
(154.806 0.77482 0)
(169.64 2.04891 0)
(159.853 2.38221 0)
(129.961 2.11154 0)
(100.218 1.17348 0)
(95.1106 0.181379 0)
(114.002 -1.02236 0)
(140.572 -2.23319 0)
(143.955 -2.22918 0)
(129.953 -1.73501 0)
(117.023 -1.24729 0)
(116.404 -1.24938 0)
(126.185 -1.47277 0)
(133.152 -1.42194 0)
(131.968 -1.2197 0)
(128.693 -0.987667 0)
(127.295 -0.914915 0)
(128.072 -0.908255 0)
(129.9 -0.900135 0)
(130.345 -0.897075 0)
(129.919 -0.909767 0)
(128.594 -0.994732 0)
(127.306 -1.12337 0)
(126.576 -1.1634 0)
(125.966 -1.08244 0)