/*--------------------------------*- C++ -*----------------------------------*\
| =========                 |                                                 |
| \\      /  F ield         | OpenFOAM: The Open Source CFD Toolbox           |
|  \\    /   O peration     | Version:  2306                                  |
|   \\  /    A nd           | Website:  www.openfoam.com                      |
|    \\/     M anipulation  |                                                 |
\*---------------------------------------------------------------------------*/
FoamFile
{
    version     2.0;
    format      ascii;
    arch        "LSB;label=32;scalar=64";
    class       volVectorField;
    location    "0.05";
    object      U;
}
// * * * * * * * * * * * * * * * * * * * * * * * * * * * * * * * * * * * * * //

dimensions      [0 1 -1 0 0 0 0];

internalField   nonuniform List<vector> 
6000
(
(500 3.67597e-14 0)
(500 -2.53005e-14 0)
(500 5.57343e-14 0)
(500 -3.39908e-15 0)
(500 3.29964e-14 0)
(500 5.57259e-14 0)
(500 7.25415e-15 0)
(500 6.00785e-14 0)
(500 1.35624e-13 0)
(500 9.40368e-14 0)
(500 2.47547e-14 0)
(500 3.06837e-14 0)
(500 -3.0664e-14 0)
(500 -2.05439e-13 0)
(500 2.35239e-12 0)
(500 -9.89592e-12 0)
(500 -1.42362e-10 0)
(500 1.25656e-09 0)
(500 -7.59459e-09 0)
(499.999 2.90927e-08 0)
(499.997 -6.80614e-08 0)
(499.991 9.22129e-08 0)
(499.972 1.1324e-07 0)
(499.918 -1.21686e-06 0)
(499.789 2.36874e-06 0)
(499.532 -1.91945e-06 0)
(499.193 -2.14654e-06 0)
(499.015 4.74352e-06 0)
(499.012 -2.26732e-06 0)
(499.069 -2.49972e-05 0)
(499.261 0.000666606 0)
(499.64 -0.00144704 0)
(500.198 -0.00113518 0)
(500.872 0.00724027 0)
(501.591 -0.00139113 0)
(502.294 -0.0102962 0)
(502.921 0.00596613 0)
(503.432 0.0143613 0)
(503.841 -0.00399159 0)
(504.153 -0.0113423 0)
(504.386 -0.000776745 0)
(504.551 0.010162 0)
(504.68 0.00604002 0)
(504.794 -0.00364368 0)
(504.894 -0.00627519 0)
(504.981 -0.00258497 0)
(505.051 0.00358933 0)
(505.107 0.00463682 0)
(505.159 -2.22978e-05 0)
(505.207 -0.00313561 0)
(505.252 -0.00283959 0)
(505.291 4.50366e-05 0)
(505.313 0.00203018 0)
(505.318 0.00105316 0)
(505.318 -0.0004555 0)
(505.318 -0.0013198 0)
(505.316 -0.00112121 0)
(505.309 -0.000174688 0)
(505.296 0.000432605 0)
(505.276 0.000706152 0)
(505.254 0.000298667 0)
(505.231 -0.000802115 0)
(505.212 -0.000990859 0)
(505.195 0.000168247 0)
(505.181 0.000793379 0)
(505.169 0.000454213 0)
(505.159 -0.000332584 0)
(505.15 -0.000707741 0)
(505.143 -0.000153972 0)
(505.136 0.000409481 0)
(505.13 0.000421918 0)
(505.125 0.000126969 0)
(505.122 -0.000161816 0)
(505.119 -0.000189056 0)
(505.117 -6.47072e-05 0)
(505.115 4.88367e-05 0)
(505.113 0.000119429 0)
(505.11 5.23241e-05 0)
(505.108 -7.46577e-05 0)
(505.108 -0.000125847 0)
(505.108 -6.21394e-05 0)
(505.109 3.40217e-05 0)
(505.111 5.63059e-05 0)
(505.114 5.81908e-05 0)
(505.119 1.16503e-05 0)
(505.127 3.43489e-06 0)
(505.136 7.46505e-06 0)
(505.146 -6.92582e-05 0)
(505.155 -1.28417e-05 0)
(505.164 0.00018697 0)
(505.172 0.00010111 0)
(505.179 -0.000150387 0)
(505.185 -0.000170702 0)
(505.191 3.31434e-05 0)
(505.197 0.000132162 0)
(505.202 7.41397e-05 0)
(505.204 -5.9608e-05 0)
(505.205 -8.76798e-05 0)
(505.205 -5.59099e-05 0)
(505.204 8.97852e-06 0)
(505.203 5.68073e-05 0)
(505.199 4.7044e-05 0)
(505.194 2.62697e-05 0)
(505.187 -4.69509e-05 0)
(505.18 -5.15406e-05 0)
(505.173 2.4942e-05 0)
(505.167 4.87205e-05 0)
(505.163 -1.52228e-06 0)
(505.159 -6.17497e-05 0)
(505.156 -3.83399e-05 0)
(505.153 -5.08799e-06 0)
(505.15 1.724e-06 0)
(505.148 -5.10856e-06 0)
(505.146 -2.31153e-05 0)
(505.144 -3.01921e-05 0)
(505.142 -1.79105e-05 0)
(505.14 -8.11556e-06 0)
(505.138 7.1868e-06 0)
(505.135 1.7056e-05 0)
(505.132 2.40911e-05 0)
(505.126 1.79285e-05 0)
(505.119 -5.28585e-06 0)
(505.112 2.3074e-05 0)
(505.108 3.93683e-05 0)
(505.108 4.08174e-05 0)
(505.109 2.9773e-05 0)
(505.112 -4.21314e-07 0)
(505.119 -2.52945e-05 0)
(505.129 -5.9165e-05 0)
(505.141 -3.33668e-05 0)
(505.153 2.26644e-05 0)
(505.161 -0.000100299 0)
(505.166 -0.000180847 0)
(505.169 -7.09441e-05 0)
(505.172 3.79961e-05 0)
(505.176 8.19398e-05 0)
(505.181 7.93549e-05 0)
(505.186 4.18321e-05 0)
(505.19 5.0944e-05 0)
(505.195 8.88008e-05 0)
(505.199 0.00010383 0)
(505.201 0.000115542 0)
(505.202 6.27206e-05 0)
(505.203 -3.2283e-05 0)
(505.202 -9.34881e-05 0)
(505.201 -0.000118683 0)
(505.198 -0.000137132 0)
(505.194 -0.000139004 0)
(505.188 -0.000131264 0)
(505.182 -0.000133954 0)
(505.176 -0.000100656 0)
(505.17 1.11508e-05 0)
(505.164 0.000136282 0)
(505.16 0.000178767 0)
(505.156 0.000176034 0)
(505.153 0.000162064 0)
(505.151 0.000166271 0)
(505.15 0.000142392 0)
(505.148 6.7705e-05 0)
(505.147 -1.7179e-05 0)
(505.145 -9.5045e-05 0)
(505.144 -0.000125495 0)
(505.143 -0.000128579 0)
(505.141 -0.000130039 0)
(505.14 -0.000123563 0)
(505.137 -8.26171e-05 0)
(505.134 -4.49148e-05 0)
(505.131 -2.06389e-05 0)
(505.125 3.83778e-05 0)
(505.117 4.30979e-05 0)
(505.108 9.02418e-05 0)
(505.103 0.000198545 0)
(505.103 0.000199929 0)
(505.104 7.9584e-05 0)
(505.107 -2.17539e-05 0)
(505.115 -8.32027e-05 0)
(505.126 -6.42434e-05 0)
(505.14 -8.86611e-05 0)
(505.153 -8.70249e-05 0)
(505.163 -1.02958e-05 0)
(505.17 -5.3303e-05 0)
(505.173 -0.000111351 0)
(505.176 -6.58889e-05 0)
(505.179 1.4389e-05 0)
(505.182 8.61853e-05 0)
(505.185 0.000129345 0)
(505.189 0.000138891 0)
(505.192 0.000137746 0)
(505.196 0.000114124 0)
(505.201 6.24591e-05 0)
(505.205 9.07608e-06 0)
(505.207 -3.99318e-05 0)
(505.208 -0.00010183 0)
(505.208 -0.000152167 0)
(505.206 -0.000160233 0)
(505.203 -0.000116624 0)
(505.199 -9.14364e-05 0)
(505.192 -8.38484e-05 0)
(505.185 -6.8813e-05 0)
(505.177 1.29729e-06 0)
(505.17 7.75278e-05 0)
(505.164 9.23947e-05 0)
(505.159 6.13207e-05 0)
(505.156 2.42671e-05 0)
(505.154 7.31845e-06 0)
(505.152 1.12741e-05 0)
(505.15 1.10689e-05 0)
(505.149 -2.90282e-06 0)
(505.147 -4.45193e-05 0)
(505.146 -7.17354e-05 0)
(505.145 -4.78382e-05 0)
(505.143 3.31352e-06 0)
(505.14 2.42331e-05 0)
(505.137 2.70878e-05 0)
(505.134 3.2357e-05 0)
(505.131 4.78811e-05 0)
(505.127 5.01731e-05 0)
(505.123 1.82703e-05 0)
(505.117 -2.72809e-05 0)
(505.108 -6.39115e-05 0)
(505.098 -8.27385e-05 0)
(505.093 -8.15417e-05 0)
(505.093 -5.96145e-05 0)
(505.094 -2.97096e-05 0)
(505.099 -1.88565e-05 0)
(505.108 2.66107e-05 0)
(505.123 0.000101802 0)
(505.14 0.000139229 0)
(505.154 0.0001806 0)
(505.163 0.000185087 0)
(505.17 0.000164487 0)
(505.175 6.78097e-05 0)
(505.18 -5.2498e-05 0)
(505.185 -0.000138293 0)
(505.189 -0.00015941 0)
(505.194 -0.000171452 0)
(505.198 -0.000212532 0)
(505.202 -0.000276288 0)
(505.206 -0.000302134 0)
(505.209 -0.000109615 0)
(505.211 0.000204417 0)
(505.213 0.000304858 0)
(505.213 0.000311157 0)
(505.213 0.000297443 0)
(505.212 0.000263881 0)
(505.21 0.00021162 0)
(505.208 9.81471e-05 0)
(505.204 -1.09694e-05 0)
(505.198 -0.000121736 0)
(505.19 -0.000263328 0)
(505.183 -0.000381856 0)
(505.176 -0.000413886 0)
(505.17 -0.000431406 0)
(505.164 -0.000374588 0)
(505.157 -0.000197992 0)
(505.151 1.81578e-05 0)
(505.147 0.000181885 0)
(505.143 0.000284086 0)
(505.14 0.000344262 0)
(505.137 0.000406854 0)
(505.135 0.000439029 0)
(505.135 0.000379478 0)
(505.134 0.000226462 0)
(505.131 9.07792e-05 0)
(505.127 -6.56605e-05 0)
(505.123 -0.000259501 0)
(505.118 -0.000348658 0)
(505.111 -0.000350373 0)
(505.099 -0.000377235 0)
(505.082 -0.000392775 0)
(505.069 -0.000257826 0)
(505.065 -2.78991e-05 0)
(505.065 0.000179175 0)
(505.07 0.000219131 0)
(505.083 0.000167094 0)
(505.105 8.1074e-05 0)
(505.13 0.000113253 0)
(505.151 0.000107249 0)
(505.165 -5.161e-05 0)
(505.174 -0.000186495 0)
(505.18 -0.000103842 0)
(505.184 5.04351e-05 0)
(505.189 0.000129483 0)
(505.192 3.92708e-05 0)
(505.195 -7.08469e-05 0)
(505.2 -5.51249e-05 0)
(505.205 5.56225e-06 0)
(505.21 9.50312e-05 0)
(505.214 0.000157489 0)
(505.219 0.00016691 0)
(505.225 5.41332e-05 0)
(505.23 -7.24618e-05 0)
(505.232 -0.000121017 0)
(505.233 -0.000169083 0)
(505.232 -0.000231792 0)
(505.229 -0.000279705 0)
(505.225 -0.000316195 0)
(505.217 -0.00024034 0)
(505.205 0.000149508 0)
(505.189 0.000305953 0)
(500 -2.3697e-14 0)
(500 -6.3575e-14 0)
(500 1.91149e-14 0)
(500 1.52696e-13 0)
(500 1.44865e-13 0)
(500 6.59945e-14 0)
(500 -2.77484e-14 0)
(500 -8.44584e-14 0)
(500 1.06956e-14 0)
(500 8.32192e-14 0)
(500 6.61652e-14 0)
(500 6.64807e-14 0)
(500 -1.83239e-13 0)
(500 4.49569e-13 0)
(500 -3.15561e-12 0)
(500 4.32166e-11 0)
(500 -3.80995e-10 0)
(500 2.54388e-09 0)
(500 -1.25904e-08 0)
(499.999 3.6849e-08 0)
(499.997 -6.56646e-08 0)
(499.991 -5.46274e-08 0)
(499.972 6.98704e-07 0)
(499.918 -2.07478e-06 0)
(499.789 2.74957e-06 0)
(499.532 1.87815e-06 0)
(499.193 -8.24632e-06 0)
(499.015 9.78066e-07 0)
(499.012 -1.13855e-06 0)
(499.069 1.06709e-05 0)
(499.261 0.000507256 0)
(499.64 -0.00156874 0)
(500.197 -0.00033614 0)
(500.872 0.00637791 0)
(501.595 -0.00329232 0)
(502.294 -0.0101569 0)
(502.916 0.00853359 0)
(503.434 0.0126696 0)
(503.848 -0.00625189 0)
(504.154 -0.0127175 0)
(504.382 0.00117813 0)
(504.548 0.0112206 0)
(504.684 0.00592568 0)
(504.799 -0.00436483 0)
(504.895 -0.00769168 0)
(504.98 -0.00249734 0)
(505.05 0.00507006 0)
(505.108 0.00542337 0)
(505.161 0.000521651 0)
(505.209 -0.00380193 0)
(505.252 -0.00340659 0)
(505.29 0.000414302 0)
(505.313 0.00271579 0)
(505.319 0.00186228 0)
(505.319 -0.00029941 0)
(505.319 -0.00140065 0)
(505.316 -0.00127945 0)
(505.308 -0.000310699 0)
(505.295 0.000801255 0)
(505.277 0.00121419 0)
(505.254 0.000428091 0)
(505.232 -0.00115963 0)
(505.212 -0.00120371 0)
(505.195 6.01139e-05 0)
(505.181 0.000896305 0)
(505.169 0.000527964 0)
(505.159 -0.000441342 0)
(505.15 -0.000833203 0)
(505.142 -0.000255088 0)
(505.136 0.000453724 0)
(505.13 0.000525528 0)
(505.125 0.000174718 0)
(505.122 -0.000182328 0)
(505.119 -0.000249087 0)
(505.117 -8.74479e-05 0)
(505.115 8.26695e-05 0)
(505.113 0.000148772 0)
(505.11 7.01066e-05 0)
(505.108 -0.00012507 0)
(505.108 -0.000234107 0)
(505.108 -0.000190192 0)
(505.109 -2.45464e-05 0)
(505.111 6.2624e-05 0)
(505.114 0.000101746 0)
(505.12 5.73491e-05 0)
(505.127 5.25563e-05 0)
(505.136 2.98122e-05 0)
(505.146 -6.97026e-05 0)
(505.155 4.02578e-05 0)
(505.164 0.000267153 0)
(505.172 0.000100253 0)
(505.179 -0.000238362 0)
(505.186 -0.00023709 0)
(505.191 2.24169e-06 0)
(505.197 9.07781e-05 0)
(505.202 2.87168e-05 0)
(505.205 -8.02072e-05 0)
(505.205 -0.000112182 0)
(505.205 -7.09166e-05 0)
(505.204 2.90579e-05 0)
(505.203 9.66142e-05 0)
(505.199 8.58346e-05 0)
(505.194 5.61242e-05 0)
(505.187 -2.75558e-05 0)
(505.18 -3.0034e-05 0)
(505.173 6.52149e-05 0)
(505.167 9.87225e-05 0)
(505.163 1.79414e-05 0)
(505.159 -5.62379e-05 0)
(505.156 -2.49469e-05 0)
(505.153 8.35121e-06 0)
(505.15 9.70031e-06 0)
(505.148 -8.81772e-06 0)
(505.146 -4.74726e-05 0)
(505.144 -8.54697e-05 0)
(505.142 -8.68166e-05 0)
(505.14 -7.72621e-05 0)
(505.138 -5.17937e-05 0)
(505.135 -1.29657e-05 0)
(505.132 8.74135e-06 0)
(505.126 1.90714e-05 0)
(505.119 -4.15978e-05 0)
(505.112 2.85218e-05 0)
(505.108 0.000121348 0)
(505.108 0.000139459 0)
(505.109 0.000148995 0)
(505.112 0.000127109 0)
(505.119 8.85603e-05 0)
(505.129 2.9833e-05 0)
(505.141 1.49085e-05 0)
(505.153 -1.15518e-05 0)
(505.161 -0.000260327 0)
(505.166 -0.000442219 0)
(505.169 -0.000324852 0)
(505.173 -0.000103983 0)
(505.176 3.12906e-05 0)
(505.181 4.75293e-05 0)
(505.186 2.26311e-06 0)
(505.19 4.95191e-05 0)
(505.195 0.000223884 0)
(505.199 0.000266345 0)
(505.202 0.000341882 0)
(505.202 0.000331737 0)
(505.202 0.000215109 0)
(505.202 9.65681e-05 0)
(505.201 2.75396e-06 0)
(505.198 -0.000198621 0)
(505.194 -0.000307652 0)
(505.188 -0.000337029 0)
(505.182 -0.000440478 0)
(505.176 -0.00042209 0)
(505.17 -0.000260461 0)
(505.164 -3.73701e-05 0)
(505.16 0.000128715 0)
(505.156 0.000208752 0)
(505.154 0.000297844 0)
(505.152 0.000457332 0)
(505.15 0.000511404 0)
(505.148 0.000465071 0)
(505.146 0.000303026 0)
(505.145 7.78884e-05 0)
(505.144 -0.00013291 0)
(505.143 -0.000221592 0)
(505.141 -0.000254808 0)
(505.139 -0.000291779 0)
(505.137 -0.000318236 0)
(505.135 -0.000291257 0)
(505.131 -0.000260382 0)
(505.125 -0.000179405 0)
(505.117 -0.000167771 0)
(505.108 -6.25357e-05 0)
(505.103 0.000344097 0)
(505.103 0.000560744 0)
(505.104 0.000523541 0)
(505.107 0.000288565 0)
(505.114 0.000122089 0)
(505.126 8.09995e-05 0)
(505.14 -4.69316e-07 0)
(505.153 -0.000231467 0)
(505.163 -0.000271555 0)
(505.17 -0.000239064 0)
(505.173 -0.000294797 0)
(505.176 -0.000336617 0)
(505.179 -0.000271213 0)
(505.182 -0.000149822 0)
(505.186 3.79295e-05 0)
(505.189 0.000235377 0)
(505.192 0.000334277 0)
(505.196 0.00038209 0)
(505.201 0.000368071 0)
(505.205 0.000263486 0)
(505.207 0.000166331 0)
(505.208 5.77748e-05 0)
(505.207 -2.62852e-05 0)
(505.206 -0.000141378 0)
(505.203 -0.000309318 0)
(505.199 -0.000326428 0)
(505.192 -0.000306381 0)
(505.185 -0.000280478 0)
(505.177 -0.000164001 0)
(505.17 -1.4846e-05 0)
(505.164 4.88322e-05 0)
(505.159 4.25232e-05 0)
(505.156 2.50712e-05 0)
(505.154 3.2635e-05 0)
(505.152 5.24049e-05 0)
(505.15 4.90368e-05 0)
(505.149 3.93256e-05 0)
(505.147 3.07036e-06 0)
(505.146 -7.55681e-05 0)
(505.145 -0.000159363 0)
(505.143 -0.000117512 0)
(505.14 2.61545e-05 0)
(505.137 6.97028e-05 0)
(505.134 0.000112364 0)
(505.131 0.000215545 0)
(505.127 0.000339408 0)
(505.122 0.000324072 0)
(505.117 1.30479e-05 0)
(505.108 -9.80976e-05 0)
(505.098 -0.000243123 0)
(505.093 -0.000268916 0)
(505.093 -0.00030898 0)
(505.094 -0.0003447 0)
(505.099 -0.000330217 0)
(505.109 -0.000137461 0)
(505.124 8.45743e-05 0)
(505.14 0.000187384 0)
(505.154 0.000467674 0)
(505.163 0.000685124 0)
(505.17 0.00073092 0)
(505.175 0.000651975 0)
(505.179 0.000340892 0)
(505.185 -3.4818e-05 0)
(505.189 -0.000164159 0)
(505.194 -0.000215156 0)
(505.198 -0.000370009 0)
(505.202 -0.000669494 0)
(505.206 -0.00106869 0)
(505.21 -0.00120882 0)
(505.212 -0.000378205 0)
(505.213 0.000304047 0)
(505.214 0.000387383 0)
(505.213 0.000496806 0)
(505.212 0.00065522 0)
(505.21 0.000892956 0)
(505.207 0.00100807 0)
(505.203 0.000733995 0)
(505.197 0.000404253 0)
(505.19 7.9012e-05 0)
(505.183 -0.000281777 0)
(505.176 -0.00050913 0)
(505.169 -0.000768426 0)
(505.164 -0.00106735 0)
(505.157 -0.00116107 0)
(505.151 -0.000789556 0)
(505.147 -0.000399771 0)
(505.144 -6.63245e-05 0)
(505.141 0.00021974 0)
(505.138 0.000492388 0)
(505.136 0.000755191 0)
(505.135 0.000833155 0)
(505.134 0.000751696 0)
(505.131 0.00060596 0)
(505.127 0.000463712 0)
(505.123 0.000218356 0)
(505.117 -6.02759e-05 0)
(505.11 -0.000214523 0)
(505.098 -0.000673307 0)
(505.082 -0.00112765 0)
(505.069 -0.00109748 0)
(505.065 -0.00072342 0)
(505.066 -5.09303e-05 0)
(505.071 0.000322884 0)
(505.083 0.000453801 0)
(505.105 0.000376657 0)
(505.13 0.000355489 0)
(505.151 0.000235625 0)
(505.166 -0.000103621 0)
(505.174 -0.000359409 0)
(505.18 -0.000212597 0)
(505.185 0.000147529 0)
(505.189 0.000431042 0)
(505.192 0.000311178 0)
(505.195 -0.000125911 0)
(505.2 -0.000195214 0)
(505.205 -0.00014492 0)
(505.21 -3.46191e-05 0)
(505.215 9.90677e-05 0)
(505.22 0.000230647 0)
(505.226 0.00025158 0)
(505.23 0.000183848 0)
(505.232 0.000114572 0)
(505.233 -3.45042e-05 0)
(505.232 -0.00031315 0)
(505.229 -0.000644915 0)
(505.225 -0.000974423 0)
(505.217 -0.00130616 0)
(505.206 -0.000591044 0)
(505.189 0.000145264 0)
(500 7.03812e-14 0)
(500 1.15466e-13 0)
(500 1.1531e-13 0)
(500 2.03543e-13 0)
(500 2.35074e-13 0)
(500 1.17898e-13 0)
(500 8.78523e-14 0)
(500 -1.39977e-13 0)
(500 -1.29985e-13 0)
(500 7.02093e-14 0)
(500 1.93218e-13 0)
(500 1.15369e-13 0)
(500 -2.90541e-13 0)
(500 8.73582e-13 0)
(500 -6.87727e-12 0)
(500 7.16548e-11 0)
(500 -5.88548e-10 0)
(500 3.59419e-09 0)
(500 -1.52789e-08 0)
(499.999 4.38633e-08 0)
(499.997 -6.06112e-08 0)
(499.991 -1.60029e-07 0)
(499.972 1.11976e-06 0)
(499.918 -2.93152e-06 0)
(499.789 3.21778e-06 0)
(499.532 3.92268e-06 0)
(499.193 -1.11733e-05 0)
(499.015 -2.83188e-06 0)
(499.012 -5.24066e-08 0)
(499.069 7.95918e-05 0)
(499.261 0.000331066 0)
(499.64 -0.00211954 0)
(500.197 0.00158027 0)
(500.872 0.0059896 0)
(501.596 -0.00787828 0)
(502.294 -0.00806463 0)
(502.913 0.0137958 0)
(503.435 0.00915505 0)
(503.849 -0.0119542 0)
(504.155 -0.0124719 0)
(504.38 0.00641987 0)
(504.546 0.0121466 0)
(504.686 0.00359248 0)
(504.801 -0.00680242 0)
(504.896 -0.00847142 0)
(504.98 -0.000496227 0)
(505.049 0.00664086 0)
(505.109 0.005083 0)
(505.163 -0.000512466 0)
(505.209 -0.00452403 0)
(505.252 -0.00342868 0)
(505.29 0.00143703 0)
(505.313 0.00283023 0)
(505.319 0.00208535 0)
(505.32 -0.000268358 0)
(505.319 -0.00157407 0)
(505.316 -0.00145473 0)
(505.309 -0.000355756 0)
(505.295 0.00101746 0)
(505.277 0.00144406 0)
(505.255 0.000265484 0)
(505.232 -0.00139111 0)
(505.212 -0.00122106 0)
(505.195 0.000166049 0)
(505.181 0.00102839 0)
(505.169 0.00049979 0)
(505.159 -0.000671571 0)
(505.151 -0.000942064 0)
(505.143 -0.000194779 0)
(505.136 0.000572809 0)
(505.13 0.000626831 0)
(505.125 0.000200152 0)
(505.122 -0.000231493 0)
(505.119 -0.000305555 0)
(505.117 -0.000147262 0)
(505.115 8.01421e-05 0)
(505.113 0.000172054 0)
(505.11 0.000103017 0)
(505.109 -0.000147258 0)
(505.108 -0.000270049 0)
(505.108 -0.000220986 0)
(505.109 -2.65597e-05 0)
(505.111 7.53196e-05 0)
(505.114 0.00012177 0)
(505.12 7.69289e-05 0)
(505.127 8.88004e-05 0)
(505.136 2.01336e-05 0)
(505.146 -0.000112791 0)
(505.155 9.53622e-05 0)
(505.164 0.000316574 0)
(505.172 2.53417e-05 0)
(505.179 -0.000334807 0)
(505.186 -0.000256504 0)
(505.191 6.0612e-05 0)
(505.197 0.000143704 0)
(505.202 4.49883e-05 0)
(505.205 -0.000111245 0)
(505.205 -0.000144136 0)
(505.205 -9.32819e-05 0)
(505.204 2.89018e-05 0)
(505.203 0.000121964 0)
(505.199 0.000106107 0)
(505.194 4.92772e-05 0)
(505.187 -5.51554e-05 0)
(505.18 -3.41311e-05 0)
(505.173 8.53148e-05 0)
(505.167 0.000106362 0)
(505.163 -8.12256e-06 0)
(505.159 -8.2813e-05 0)
(505.156 -1.83593e-05 0)
(505.153 3.52992e-05 0)
(505.15 4.51503e-05 0)
(505.148 2.66931e-05 0)
(505.146 -2.74659e-05 0)
(505.144 -8.19451e-05 0)
(505.142 -8.91311e-05 0)
(505.14 -8.17324e-05 0)
(505.138 -7.12991e-05 0)
(505.135 -5.11274e-05 0)
(505.132 -2.17456e-05 0)
(505.126 6.63307e-06 0)
(505.119 -7.16455e-05 0)
(505.112 3.25798e-05 0)
(505.108 0.000169607 0)
(505.108 0.000186913 0)
(505.109 0.000168787 0)
(505.112 0.000118285 0)
(505.118 8.78194e-05 0)
(505.129 3.55335e-05 0)
(505.141 0.000105626 0)
(505.153 -1.21738e-05 0)
(505.161 -0.000334338 0)
(505.166 -0.0005057 0)
(505.169 -0.00043074 0)
(505.173 -0.000215751 0)
(505.177 -1.58553e-05 0)
(505.181 6.2915e-05 0)
(505.186 2.32519e-05 0)
(505.191 4.34753e-05 0)
(505.195 0.000276701 0)
(505.199 0.000333371 0)
(505.202 0.000409614 0)
(505.202 0.00039045 0)
(505.202 0.000247516 0)
(505.202 0.000121524 0)
(505.201 -7.00674e-06 0)
(505.198 -0.000236457 0)
(505.194 -0.000292575 0)
(505.188 -0.000359008 0)
(505.182 -0.000519903 0)
(505.176 -0.000501904 0)
(505.17 -0.000317379 0)
(505.165 -8.71276e-05 0)
(505.16 5.33134e-05 0)
(505.157 0.000120659 0)
(505.154 0.000283831 0)
(505.152 0.000539083 0)
(505.15 0.000588615 0)
(505.148 0.000544886 0)
(505.146 0.000372709 0)
(505.145 0.000135156 0)
(505.144 -0.000130222 0)
(505.142 -0.000357375 0)
(505.141 -0.000410102 0)
(505.139 -0.00040674 0)
(505.137 -0.000369181 0)
(505.135 -0.000296992 0)
(505.131 -0.000256096 0)
(505.126 -0.000156888 0)
(505.118 -0.000102534 0)
(505.109 0.000134555 0)
(505.104 0.00057556 0)
(505.103 0.000640149 0)
(505.104 0.000604607 0)
(505.107 0.000315346 0)
(505.114 8.69883e-05 0)
(505.126 5.84994e-05 0)
(505.14 3.2304e-05 0)
(505.153 -0.000299022 0)
(505.163 -0.000522798 0)
(505.17 -0.000389174 0)
(505.173 -0.000295873 0)
(505.176 -0.000271696 0)
(505.179 -0.00022863 0)
(505.183 -9.67753e-05 0)
(505.186 7.01589e-05 0)
(505.189 0.000315254 0)
(505.192 0.000477294 0)
(505.196 0.000456809 0)
(505.201 0.00037761 0)
(505.205 0.000230966 0)
(505.207 9.01066e-05 0)
(505.208 -4.7887e-05 0)
(505.207 -0.000110985 0)
(505.206 -0.00030072 0)
(505.203 -0.000453845 0)
(505.199 -0.000397219 0)
(505.192 -0.000300122 0)
(505.185 -0.00022561 0)
(505.177 -5.5811e-05 0)
(505.17 0.000133918 0)
(505.164 0.000196722 0)
(505.159 0.00016696 0)
(505.156 9.6363e-05 0)
(505.154 1.72074e-05 0)
(505.152 -3.30498e-05 0)
(505.15 -4.96279e-05 0)
(505.149 -7.12345e-05 0)
(505.147 -0.000133665 0)
(505.146 -0.000228005 0)
(505.145 -0.000321653 0)
(505.143 -0.000261697 0)
(505.14 -9.72284e-06 0)
(505.137 0.000127757 0)
(505.134 0.000209693 0)
(505.131 0.000342858 0)
(505.127 0.000474849 0)
(505.122 0.000523021 0)
(505.116 0.000197054 0)
(505.108 -3.67105e-05 0)
(505.098 -0.000314074 0)
(505.093 -0.000367786 0)
(505.093 -0.000450631 0)
(505.094 -0.000500699 0)
(505.099 -0.000451832 0)
(505.109 -0.000225332 0)
(505.124 -1.81457e-05 0)
(505.14 7.03421e-05 0)
(505.154 0.000457799 0)
(505.163 0.000874359 0)
(505.17 0.000954862 0)
(505.175 0.000847416 0)
(505.179 0.000463836 0)
(505.184 -8.38247e-06 0)
(505.189 -0.000246575 0)
(505.193 -0.000312714 0)
(505.198 -0.000462656 0)
(505.202 -0.000785495 0)
(505.206 -0.00119684 0)
(505.21 -0.00135465 0)
(505.213 -0.000894698 0)
(505.214 8.63224e-05 0)
(505.214 0.000485159 0)
(505.214 0.000589489 0)
(505.213 0.00079884 0)
(505.211 0.0010629 0)
(505.207 0.00113531 0)
(505.203 0.000851466 0)
(505.197 0.000416498 0)
(505.19 5.57754e-05 0)
(505.182 -0.000225023 0)
(505.175 -0.000446381 0)
(505.169 -0.000754188 0)
(505.163 -0.00113421 0)
(505.157 -0.00133052 0)
(505.152 -0.00113107 0)
(505.148 -0.000759821 0)
(505.144 -0.00031282 0)
(505.141 0.000244122 0)
(505.138 0.000821162 0)
(505.136 0.00131517 0)
(505.135 0.0012307 0)
(505.134 0.000737543 0)
(505.13 0.00057456 0)
(505.127 0.000481624 0)
(505.122 0.00031025 0)
(505.117 0.000163389 0)
(505.109 -0.000119085 0)
(505.097 -0.000911147 0)
(505.082 -0.00123447 0)
(505.069 -0.00117659 0)
(505.066 -0.000776881 0)
(505.066 -2.79882e-05 0)
(505.071 0.000322302 0)
(505.084 0.00048929 0)
(505.105 0.000627821 0)
(505.129 0.000688226 0)
(505.15 0.000537307 0)
(505.165 -1.26196e-05 0)
(505.174 -0.000443635 0)
(505.18 -0.00046368 0)
(505.185 -0.00025909 0)
(505.189 -4.67021e-05 0)
(505.192 -2.46961e-06 0)
(505.195 -5.49912e-05 0)
(505.2 -1.72314e-05 0)
(505.205 6.48194e-05 0)
(505.21 0.000245659 0)
(505.215 0.000464492 0)
(505.22 0.000530102 0)
(505.226 0.000275126 0)
(505.23 4.05703e-05 0)
(505.232 -8.9018e-05 0)
(505.232 -0.000227059 0)
(505.231 -0.000418864 0)
(505.229 -0.000682148 0)
(505.224 -0.00105792 0)
(505.216 -0.00150237 0)
(505.207 -0.00109593 0)
(505.19 -0.000101074 0)
(500 1.23284e-13 0)
(500 1.84803e-13 0)
(500 2.21654e-13 0)
(500 1.23838e-13 0)
(500 3.31663e-13 0)
(500 2.07133e-13 0)
(500 1.68479e-13 0)
(500 3.27174e-14 0)
(500 -5.10261e-14 0)
(500 1.34514e-14 0)
(500 1.31125e-13 0)
(500 5.72937e-14 0)
(500 -3.03168e-13 0)
(500 1.25254e-12 0)
(500 -1.052e-11 0)
(500 9.62285e-11 0)
(500 -7.15755e-10 0)
(500 3.94815e-09 0)
(500 -1.50961e-08 0)
(499.999 3.62503e-08 0)
(499.997 -6.20253e-09 0)
(499.991 -3.546e-07 0)
(499.972 1.5564e-06 0)
(499.918 -3.25681e-06 0)
(499.789 2.17502e-06 0)
(499.532 7.40655e-06 0)
(499.193 -1.29878e-05 0)
(499.015 -8.33256e-06 0)
(499.012 1.45442e-06 0)
(499.069 0.000152956 0)
(499.261 4.87466e-06 0)
(499.64 -0.00227043 0)
(500.196 0.00373498 0)
(500.873 0.00399404 0)
(501.597 -0.0116486 0)
(502.293 -0.00265158 0)
(502.911 0.0169962 0)
(503.438 0.00345085 0)
(503.848 -0.0166227 0)
(504.155 -0.00794152 0)
(504.377 0.0113121 0)
(504.546 0.0108098 0)
(504.687 -0.000228369 0)
(504.801 -0.00896016 0)
(504.896 -0.00737345 0)
(504.979 0.00291824 0)
(505.047 0.00699857 0)
(505.109 0.00367828 0)
(505.163 -0.0021375 0)
(505.209 -0.00491616 0)
(505.253 -0.00226874 0)
(505.29 0.00253719 0)
(505.313 0.00257795 0)
(505.319 0.00173479 0)
(505.32 -0.000688326 0)
(505.32 -0.0016692 0)
(505.316 -0.0014013 0)
(505.308 -7.85799e-05 0)
(505.295 0.00124053 0)
(505.277 0.00143367 0)
(505.255 -9.12521e-05 0)
(505.233 -0.00145894 0)
(505.212 -0.000968414 0)
(505.195 0.000432433 0)
(505.181 0.00102384 0)
(505.17 0.000213027 0)
(505.16 -0.000802384 0)
(505.151 -0.000780067 0)
(505.143 2.72122e-05 0)
(505.136 0.000644925 0)
(505.13 0.000637921 0)
(505.125 0.000160597 0)
(505.122 -0.000259258 0)
(505.119 -0.000301236 0)
(505.117 -0.00013529 0)
(505.115 0.00010694 0)
(505.113 0.000177869 0)
(505.11 7.96487e-05 0)
(505.109 -0.000190342 0)
(505.108 -0.000282738 0)
(505.109 -0.00020042 0)
(505.109 8.01759e-06 0)
(505.111 0.000112713 0)
(505.114 0.000144761 0)
(505.12 9.89294e-05 0)
(505.127 0.000121303 0)
(505.136 -1.20157e-05 0)
(505.146 -0.000131651 0)
(505.155 0.00014944 0)
(505.164 0.000289863 0)
(505.172 -7.1453e-05 0)
(505.179 -0.000381705 0)
(505.186 -0.0002009 0)
(505.191 0.000132524 0)
(505.197 0.000131832 0)
(505.202 -9.79952e-06 0)
(505.205 -0.000128665 0)
(505.205 -0.00011037 0)
(505.205 -4.98932e-05 0)
(505.204 6.99034e-05 0)
(505.203 0.000147934 0)
(505.199 0.00010299 0)
(505.194 1.28053e-05 0)
(505.187 -0.000114098 0)
(505.18 -8.00568e-05 0)
(505.173 6.51687e-05 0)
(505.167 8.61492e-05 0)
(505.163 -2.32109e-05 0)
(505.159 -5.99564e-05 0)
(505.156 8.81026e-06 0)
(505.153 5.54934e-05 0)
(505.151 9.86637e-05 0)
(505.148 9.4742e-05 0)
(505.146 5.1675e-05 0)
(505.144 -5.52039e-05 0)
(505.142 -0.000100096 0)
(505.14 -0.000105667 0)
(505.138 -0.000107093 0)
(505.135 -0.00010756 0)
(505.132 -9.13463e-05 0)
(505.127 -5.05684e-05 0)
(505.119 -0.000126802 0)
(505.112 -4.14009e-06 0)
(505.109 0.000152038 0)
(505.108 0.000168778 0)
(505.109 0.000130361 0)
(505.112 0.000110132 0)
(505.118 9.09698e-05 0)
(505.129 4.84538e-05 0)
(505.141 0.000209839 0)
(505.152 6.70671e-05 0)
(505.161 -0.000296987 0)
(505.166 -0.000463411 0)
(505.169 -0.000407473 0)
(505.173 -0.000283103 0)
(505.177 -0.00014921 0)
(505.181 -7.69562e-05 0)
(505.186 -5.79826e-05 0)
(505.191 3.34114e-05 0)
(505.195 0.00028795 0)
(505.199 0.000362253 0)
(505.202 0.000418898 0)
(505.202 0.00039599 0)
(505.202 0.000272041 0)
(505.202 0.000193763 0)
(505.2 -3.19624e-05 0)
(505.198 -0.000162685 0)
(505.194 -0.000244017 0)
(505.188 -0.000362877 0)
(505.182 -0.000546053 0)
(505.176 -0.000550847 0)
(505.17 -0.000349256 0)
(505.165 -0.000112155 0)
(505.161 7.84043e-05 0)
(505.157 0.000206509 0)
(505.154 0.000404934 0)
(505.152 0.000554297 0)
(505.15 0.000553072 0)
(505.148 0.000484548 0)
(505.146 0.000298663 0)
(505.145 8.59515e-05 0)
(505.143 -8.60463e-05 0)
(505.142 -0.000335893 0)
(505.141 -0.000476297 0)
(505.139 -0.000489407 0)
(505.137 -0.000474418 0)
(505.135 -0.00040996 0)
(505.131 -0.000336292 0)
(505.126 -0.000176037 0)
(505.118 2.15401e-05 0)
(505.109 0.000431332 0)
(505.104 0.000631897 0)
(505.103 0.00065775 0)
(505.104 0.000639529 0)
(505.107 0.000349959 0)
(505.114 7.68691e-05 0)
(505.125 3.84437e-05 0)
(505.139 -2.97775e-06 0)
(505.153 -0.000376376 0)
(505.163 -0.000645439 0)
(505.17 -0.000570851 0)
(505.173 -0.000390075 0)
(505.177 -0.000303742 0)
(505.18 -0.000178112 0)
(505.183 2.9959e-05 0)
(505.186 0.000230233 0)
(505.189 0.000468022 0)
(505.193 0.000618754 0)
(505.196 0.00054426 0)
(505.2 0.000395942 0)
(505.205 0.000217923 0)
(505.207 5.31111e-05 0)
(505.207 -0.000129041 0)
(505.207 -0.000241064 0)
(505.206 -0.000504045 0)
(505.203 -0.000609275 0)
(505.199 -0.000580002 0)
(505.193 -0.000388348 0)
(505.185 -0.000181204 0)
(505.178 3.81896e-05 0)
(505.17 0.000271285 0)
(505.164 0.000387491 0)
(505.16 0.000393066 0)
(505.156 0.00035019 0)
(505.154 0.000219628 0)
(505.152 3.32866e-05 0)
(505.15 -5.7589e-05 0)
(505.149 -0.000123592 0)
(505.147 -0.000260238 0)
(505.146 -0.000452115 0)
(505.144 -0.000582534 0)
(505.143 -0.000497956 0)
(505.141 -0.00020467 0)
(505.138 0.000127244 0)
(505.135 0.000262603 0)
(505.131 0.000411938 0)
(505.127 0.000584019 0)
(505.122 0.000722394 0)
(505.116 0.000584287 0)
(505.107 0.000216142 0)
(505.098 -0.000274027 0)
(505.093 -0.000423113 0)
(505.093 -0.000504302 0)
(505.094 -0.000593709 0)
(505.099 -0.000560886 0)
(505.109 -0.00035001 0)
(505.124 -0.000134479 0)
(505.141 -8.41802e-05 0)
(505.155 0.000273273 0)
(505.164 0.000881116 0)
(505.17 0.00102472 0)
(505.174 0.000986185 0)
(505.179 0.000676104 0)
(505.183 0.000188298 0)
(505.188 -0.000234789 0)
(505.193 -0.000374977 0)
(505.197 -0.000531059 0)
(505.202 -0.000849907 0)
(505.206 -0.00117796 0)
(505.21 -0.00131398 0)
(505.213 -0.00113144 0)
(505.215 -0.000418619 0)
(505.215 0.000486611 0)
(505.214 0.000814361 0)
(505.213 0.000964138 0)
(505.211 0.00117847 0)
(505.207 0.00125466 0)
(505.202 0.00104473 0)
(505.196 0.000505308 0)
(505.19 -6.21829e-05 0)
(505.182 -0.000327934 0)
(505.175 -0.000574342 0)
(505.168 -0.000958016 0)
(505.163 -0.001349 0)
(505.157 -0.00144099 0)
(505.153 -0.00119271 0)
(505.149 -0.00076195 0)
(505.145 -0.000258266 0)
(505.142 0.000327128 0)
(505.139 0.000992212 0)
(505.137 0.00156506 0)
(505.135 0.00164647 0)
(505.133 0.00100423 0)
(505.13 0.000426864 0)
(505.126 0.00014145 0)
(505.122 -0.000127906 0)
(505.117 -0.000418942 0)
(505.108 -0.000916514 0)
(505.097 -0.00116308 0)
(505.082 -0.00125381 0)
(505.069 -0.00107578 0)
(505.066 -0.000686087 0)
(505.067 3.87334e-06 0)
(505.072 0.000409263 0)
(505.085 0.000672707 0)
(505.105 0.000867949 0)
(505.129 0.00109083 0)
(505.15 0.000961444 0)
(505.165 0.000222713 0)
(505.174 -0.000651914 0)
(505.18 -0.000980778 0)
(505.185 -0.00102891 0)
(505.189 -0.000932834 0)
(505.192 -0.000732705 0)
(505.196 -0.000214449 0)
(505.2 0.000279684 0)
(505.205 0.000534201 0)
(505.21 0.00077424 0)
(505.215 0.00108923 0)
(505.22 0.0012584 0)
(505.225 0.000797438 0)
(505.23 0.000239802 0)
(505.232 -0.000135194 0)
(505.232 -0.000368541 0)
(505.231 -0.000500674 0)
(505.228 -0.000688808 0)
(505.223 -0.00114504 0)
(505.216 -0.0016983 0)
(505.207 -0.00153985 0)
(505.192 -0.000578519 0)
(500 9.31145e-14 0)
(500 2.3165e-13 0)
(500 3.27651e-13 0)
(500 1.87851e-13 0)
(500 3.20087e-13 0)
(500 4.88629e-13 0)
(500 9.24927e-14 0)
(500 1.65168e-13 0)
(500 -5.93435e-14 0)
(500 -9.56864e-14 0)
(500 -4.84421e-14 0)
(500 1.88028e-15 0)
(500 -3.14596e-13 0)
(500 1.99361e-12 0)
(500 -1.45624e-11 0)
(500 1.15801e-10 0)
(500 -7.57516e-10 0)
(500 3.66837e-09 0)
(500 -1.15512e-08 0)
(499.999 1.21666e-08 0)
(499.997 9.40356e-08 0)