/*--------------------------------*- C++ -*----------------------------------*\
| =========                 |                                                 |
| \\      /  F ield         | OpenFOAM: The Open Source CFD Toolbox           |
|  \\    /   O peration     | Version:  2306                                  |
|   \\  /    A nd           | Website:  www.openfoam.com                      |
|    \\/     M anipulation  |                                                 |
\*---------------------------------------------------------------------------*/
FoamFile
{
    version     2.0;
    format      ascii;
    arch        "LSB;label=32;scalar=64";
    class       volScalarField;
    location    "0.06";
    object      rho;
}
// * * * * * * * * * * * * * * * * * * * * * * * * * * * * * * * * * * * * * //

dimensions      [1 -3 0 0 0 0 0];

internalField   nonuniform List<scalar> 
6000
(
15.8879
0.109781
0.189392
0.221622
0.22584
0.223399
0.222228
0.219668
0.214228
0.206559
0.173093
0.132621
0.127565
0.129085
0.134101
0.140798
0.147679
0.154547
0.161597
0.169185
0.177806
0.187428
0.195993
0.200091
0.199925
0.197525
0.184578
0.14735
0.128027
0.127307
0.12913
0.133074
0.136944
0.140013
0.142633
0.145177
0.147802
0.150501
0.153224
0.156118
0.159838
0.165789
0.172396
0.173598
0.171474
0.157882
0.132682
0.126054
0.126257
0.128387
0.132112
0.135621
0.138465
0.141098
0.143895
0.147043
0.150518
0.154171
0.158105
0.163013
0.169991
0.178598
0.18233
0.181826
0.168834
0.152038
0.150129
0.152056
0.156721
0.162288
0.167001
0.17067
0.1738
0.176933
0.180342
0.184321
0.189655
0.197342
0.207016
0.211717
0.212173
0.201458
0.189178
0.189501
0.194377
0.202965
0.213145
0.222616
0.231088
0.239479
0.248883
0.260769
0.276933
0.296639
0.307456
0.3108
0.301657
0.296242
0.305971
0.323799
0.348448
0.374378
0.400862
0.432313
0.473264
0.515418
0.551014
0.574742
0.608241
0.678218
0.787913
0.946202
1.13412
1.25809
1.32857
1.37304
1.43541
1.53332
1.59974
1.61054
1.59317
1.58715
1.59857
1.62542
1.63731
1.63593
1.62791
1.62466
1.62612
1.63004
1.63092
1.62978
1.62655
1.62449
1.62482
1.62581
1.62702
1.6281
1.62928
1.63133
1.63502
1.63913
1.64113
1.64145
1.64129
1.64045
1.6392
1.63781
1.63628
1.63459
1.63286
1.63129
1.63008
1.62933
1.62904
1.62915
1.62948
1.6301
1.63127
1.63315
1.63585
1.63913
1.64207
1.64367
1.64414
1.64426
1.644
1.64285
1.64017
1.63544
1.62929
1.62413
1.62199
1.62171
1.62191
1.62233
1.62334
1.62537
1.62884
1.63372
1.63911
1.64333
1.64533
1.64589
1.64605
1.646
1.64533
1.64328
1.63901
1.63237
1.62557
1.62212
1.62153
1.62168
1.62212
1.62321
1.62568
1.63045
1.63805
1.64766
1.65634
1.66107
1.66254
1.66287
1.66268
1.66194
1.65957
1.65389
1.6432
1.62815
1.61486
1.6092
1.60833
1.60846
1.60908
1.6108
1.61458
1.62107
1.6291
1.63414
1.63507
1.63513
1.63424
1.63286
1.63249
1.63397
1.63674
1.642
1.65028
1.66077
1.67135
1.67964
1.68381
1.68466
1.68319
1.67891
1.66718
1.64571
1.62011
1.60257
1.59582
1.59415
1.59387
1.59398
1.59487
1.59715
1.60119
1.60698
1.61389
1.62093
1.62735
1.63297
1.63809
1.64313
1.64842
1.65416
1.66055
1.66767
1.67547
1.68388
1.69286
1.70242
1.71284
1.72481
1.73973
1.75934
1.78164
1.7947
1.79603
1.79426
1.78334
1.74686
1.66896
1.58496
1.55372
1.55112
1.55111
1.55126
1.55163
1.55215
1.55264
1.55301
1.55328
1.55352
1.55378
1.55407
1.55439
1.55473
1.55507
1.5554
1.55572
1.55605
1.55638
1.55671
1.55705
1.5574
1.55774
1.5581
1.55843
1.55899
15.8859
0.108804
0.189155
0.22146
0.225725
0.223332
0.222231
0.219702
0.214245
0.206564
0.173288
0.132748
0.127621
0.129117
0.134096
0.140749
0.147563
0.154351
0.161343
0.168882
0.177382
0.186763
0.195303
0.199711
0.199825
0.197679
0.185329
0.148556
0.128423
0.12761
0.129397
0.133337
0.13722
0.140289
0.142899
0.145424
0.148022
0.150683
0.153353
0.156179
0.15983
0.165725
0.17229
0.173464
0.171331
0.157854
0.132676
0.125986
0.126178
0.128294
0.132015
0.135535
0.138393
0.141041
0.143855
0.147025
0.150508
0.154149
0.158057
0.162938
0.169918
0.178568
0.182312
0.181819
0.168819
0.152007
0.150118
0.152077
0.156784
0.162373
0.167115
0.170872
0.174128
0.177356
0.180794
0.18474
0.19
0.197605
0.207173
0.211648
0.211908
0.201047
0.189087
0.189613
0.194557
0.203172
0.213329
0.222733
0.231111
0.23939
0.248672
0.260435
0.276487
0.296097
0.306972
0.31042
0.301598
0.296393
0.306194
0.324066
0.34864
0.374482
0.400894
0.432322
0.473437
0.515931
0.551431
0.574843
0.607444
0.676677
0.785129
0.941449
1.12888
1.25433
1.32544
1.36852
1.43014
1.52819
1.59994
1.6124
1.59436
1.58589
1.59643
1.62329
1.6373
1.63653
1.62862
1.62445
1.62565
1.62943
1.63058
1.62963
1.62663
1.62449
1.62476
1.62575
1.62697
1.62806
1.62925
1.63124
1.63482
1.63889
1.64097
1.64132
1.64119
1.64041
1.63919
1.63783
1.63635
1.63473
1.63308
1.63163
1.63049
1.62975
1.62943
1.62952
1.62982
1.6304
1.63153
1.63335
1.63595
1.63908
1.64184
1.6434
1.64391
1.64406
1.6438
1.64275
1.6403
1.63598
1.63019
1.62496
1.62251
1.62211
1.62226
1.6227
1.6237
1.62564
1.62895
1.63368
1.63901
1.64327
1.64529
1.64586
1.64602
1.64591
1.64516
1.64311
1.63894
1.6325
1.62583
1.62231
1.62167
1.62177
1.62216
1.62317
1.62539
1.62968
1.63668
1.64593
1.65478
1.65987
1.66142
1.66175
1.66164
1.66087
1.65864
1.65355
1.64412
1.63088
1.61826
1.61166
1.61019
1.61012
1.61063
1.61223
1.61591
1.62238
1.63043
1.63575
1.6369
1.63707
1.63629
1.63472
1.63363
1.63454
1.63672
1.64065
1.64657
1.65464
1.6644
1.67319
1.67801
1.67918
1.6778
1.67293
1.66223
1.64528
1.62659
1.61178
1.60246
1.59791
1.5964
1.59606
1.59652
1.59832
1.60197
1.60722
1.61347
1.62006
1.62643
1.63234
1.63786
1.6432
1.64866
1.6545
1.6609
1.66796
1.67571
1.68411
1.69306
1.70259
1.71294
1.72484
1.73969
1.75924
1.78146
1.79434
1.7956
1.79383
1.78298
1.74665
1.66897
1.58507
1.55375
1.55112
1.55112
1.55126
1.55163
1.55214
1.55264
1.55301
1.55328
1.55352
1.55378
1.55407
1.55439
1.55473
1.55507
1.5554
1.55573
1.55605
1.55638
1.55671
1.55705
1.5574
1.55774
1.5581
1.55843
1.55899
15.8534
0.137462
0.187416
0.220801
0.22574
0.22349
0.222474
0.220004
0.214545
0.206957
0.17401
0.133231
0.127854
0.129278
0.134169
0.140784
0.14757
0.154304
0.161187
0.168545
0.176757
0.18579
0.194322
0.199109
0.199432
0.197493
0.186191
0.150351
0.128951
0.127962
0.129666
0.133605
0.137534
0.140634
0.143243
0.145747
0.148315
0.150939
0.153566
0.156331
0.159885
0.165647
0.172128
0.173298
0.171193
0.157829
0.132694
0.125922
0.126097
0.128192
0.13191
0.135452
0.138346
0.141024
0.143864
0.147073
0.150594
0.154251
0.158149
0.163024
0.170043
0.1788
0.182625
0.182127
0.169012
0.152174
0.150335
0.152352
0.157156
0.162828
0.167645
0.171471
0.174794
0.178094
0.181622
0.185659
0.191002
0.198636
0.208002
0.212193
0.212012
0.200551
0.188957
0.189799
0.194879
0.203629
0.213776
0.223038
0.231227
0.239294
0.248376
0.259908
0.275694
0.295044
0.30585
0.30942
0.300989
0.29617
0.306199
0.324303
0.349061
0.374972
0.401315
0.432703
0.474029
0.516881
0.55184
0.57413
0.604459
0.670937
0.775039
0.924955
1.10836
1.23709
1.31198
1.35404
1.41544
1.51337
1.5964
1.61406
1.59796
1.58478
1.59334
1.61934
1.63672
1.63717
1.63023
1.62467
1.62522
1.62848
1.63
1.62934
1.62678
1.62457
1.62474
1.6257
1.62693
1.62807
1.62928
1.63118
1.63453
1.63847
1.64068
1.64108
1.64101
1.64029
1.63912
1.63778
1.63636
1.63487
1.63341
1.63211
1.63104
1.63026
1.6299
1.62995
1.63027
1.63088
1.63203
1.63379
1.63625
1.63915
1.64171
1.64314
1.64358
1.64369
1.64339
1.64236
1.64013
1.6364
1.63129
1.62623
1.62338
1.62276
1.62288
1.62335
1.62435
1.6262
1.62931
1.63376
1.63886
1.64301
1.64505
1.64564
1.64579
1.64566
1.64489
1.64284
1.63882
1.63275
1.62638
1.62275
1.62197
1.62202
1.62241
1.62339
1.62545
1.62927
1.63548
1.64397
1.65264
1.65804
1.65967
1.65997
1.65981
1.65895
1.65678
1.65241
1.64493
1.63413
1.6227
1.61512
1.61238
1.61191
1.61229
1.61381
1.61736
1.62352
1.6312
1.63697
1.63888
1.63945
1.63934
1.6384
1.63657
1.63527
1.63627
1.63825
1.64208
1.64826
1.65664
1.66523
1.67018
1.67102
1.66885
1.6632
1.65388
1.64285
1.63254
1.62261
1.61283
1.60497
1.60087
1.59967
1.59971
1.60091
1.60367
1.60803
1.61337
1.61913
1.62512
1.63113
1.63704
1.64283
1.64862
1.6547
1.66124
1.66836
1.67612
1.68448
1.69339
1.70287
1.71316
1.72499
1.73978
1.75924
1.78122
1.79376
1.79495
1.79317
1.78233
1.74621
1.66896
1.58524
1.55379
1.55112
1.55112
1.55127
1.55163
1.55214
1.55264
1.55301
1.55328
1.55352
1.55378
1.55407
1.55439
1.55473
1.55507
1.5554
1.55573
1.55605
1.55638
1.55671
1.55705
1.5574
1.55774
1.5581
1.55843
1.55899
15.8696
0.12205
0.187087
0.220245
0.225367
0.223287
0.222461
0.219946
0.214638
0.207445
0.175649
0.13423
0.128269
0.129565
0.134313
0.140879
0.147645
0.154323
0.161063
0.168197
0.176073
0.18473
0.193233
0.198437
0.199172
0.197509
0.187176
0.152496
0.129635
0.128439
0.130029
0.133967
0.137943
0.141047
0.143616
0.146058
0.148567
0.151143
0.153728
0.156437
0.159902
0.165538
0.171951
0.173131
0.171048
0.157828
0.132733
0.125861
0.126026
0.128103
0.131822
0.13539
0.138322
0.141015
0.143867
0.147117
0.150686
0.154389
0.158342
0.163272
0.17037
0.179309
0.183286
0.182826
0.169572
0.152716
0.150966
0.153086
0.158056
0.163858
0.16875
0.172621
0.175996
0.179371
0.18299
0.187142
0.192693
0.200586
0.20976
0.213636
0.212789
0.200379
0.189175
0.190352
0.195516
0.204366
0.214483
0.223543
0.231441
0.239163
0.247883
0.259063
0.274529
0.293499
0.304119
0.30777
0.299767
0.295422
0.305765
0.324206
0.349288
0.375339
0.401807
0.433244
0.474845
0.518069
0.551902
0.572104
0.598301
0.65936
0.755295
0.893702
1.06704
1.20014
1.28192
1.327
1.39041
1.4862
1.58555
1.61208
1.6022
1.58431
1.59052
1.61414
1.63533
1.63724
1.63177
1.62473
1.62468
1.62737
1.62933
1.62899
1.62694
1.62472
1.62478
1.62573
1.62704
1.62821
1.62939
1.63112
1.63414
1.63786
1.64022
1.64073
1.64074
1.64013
1.63903
1.63774
1.63641
1.63507
1.6338
1.6327
1.63177
1.63102
1.63061
1.63062
1.63094
1.63158
1.63269
1.63433
1.63657
1.63919
1.64151
1.64278
1.64318
1.64325
1.64292
1.64195
1.64002
1.63688
1.63262
1.62808
1.62495
1.62396
1.62396
1.62438
1.62531
1.62701
1.62987
1.63397
1.63872
1.64262
1.64458
1.64517
1.64531
1.64513
1.6443
1.64228
1.63851
1.63302
1.62724
1.6236
1.62256
1.62248
1.62279
1.62365
1.62547
1.62882
1.63421
1.64155
1.6495
1.65513
1.65711
1.6575
1.65739
1.65666
1.65487
1.65137
1.64541
1.63699
1.62759
1.62015
1.61648
1.61545
1.61562
1.617
1.62036
1.62621
1.63364
1.63959
1.64193
1.64264
1.64275
1.64198
1.63961
1.63624
1.63494
1.63566
1.63743
1.64085
1.64601
1.65206
1.65673
1.6585
1.65709
1.6528
1.64689
1.64134
1.63672
1.63122
1.62374
1.61528
1.60871
1.60561
1.60474
1.60506
1.60654
1.60936
1.61344
1.61839
1.62389
1.62985
1.63603
1.64229
1.64862
1.65506
1.6618
1.66902
1.67679
1.68511
1.69395
1.70333
1.71351
1.72522
1.73987
1.75912
1.78071
1.79288
1.79399
1.79221
1.78141
1.74559
1.66895
1.5855
1.55386
1.55113
1.55112
1.55127
1.55162
1.55213
1.55263
1.55301
1.55328
1.55353
1.55378
1.55407
1.55439
1.55473
1.55507
1.5554
1.55573
1.55605
1.55638
1.55671
1.55705
1.5574
1.55774
1.55811
1.55843
1.55899
15.873
0.123624
0.186194
0.219313
0.22474
0.222814
0.222138
0.219564
0.214385
0.207733
0.177863
0.135741
0.12883
0.129961
0.134533
0.141037
0.147757
0.154358
0.160992
0.167945
0.175514
0.183825
0.192215
0.197695
0.198693
0.197234
0.187921
0.154614
0.130328
0.128869
0.130298
0.13418
0.138183
0.141292
0.143832
0.146231
0.148702
0.151255
0.153817
0.156486
0.159878
0.165413
0.171773
0.17298
0.170935
0.157916
0.13285
0.125833
0.125991
0.128052
0.131768
0.135357
0.138303
0.140991
0.143848
0.147123
0.150726
0.154503
0.158558
0.163601
0.170841
0.180069
0.184282
0.183916
0.17052
0.153596
0.151937
0.154185
0.159351
0.165331
0.170334
0.174273
0.177729
0.181205
0.18493
0.189214
0.195047
0.203403
0.212584
0.216144
0.214479
0.200795
0.189984
0.191453
0.196647
0.205539
0.215515
0.224262
0.231738
0.239068
0.247331
0.258079
0.273131
0.291679
0.301966
0.305486
0.297791
0.293934
0.304659
0.323552
0.349064
0.375332
0.401868
0.433439
0.475192
0.518961
0.5514
0.568894
0.589554
0.643652
0.7293
0.853309
1.01182
1.14837
1.23772
1.29026
1.35786
1.45127
1.56623
1.60685
1.60512
1.58478
1.58865
1.60883
1.63303
1.63691
1.63286
1.62488
1.62418
1.62634
1.62869
1.62867
1.62708
1.62493
1.62493
1.62594
1.62733
1.62852
1.62964
1.63114
1.63375
1.63719
1.63963
1.64026
1.64035
1.63986
1.63885
1.63763
1.63639
1.63521
1.63418
1.63334
1.63261
1.63194
1.63148
1.63143
1.63175
1.63237
1.63341
1.63491
1.6369
1.63925
1.6413
1.64237
1.6427
1.64273
1.64239
1.64147
1.63978
1.63721
1.63385
1.63012
1.62702
1.62559
1.62542
1.62575
1.62658
1.6281
1.63061
1.63422
1.63844
1.64199
1.64383
1.64441
1.64454
1.6443
1.64339
1.64136
1.63788
1.63311
1.6282
1.62483
1.62353
1.62327
1.62346
1.62416
1.62572
1.62862
1.63316
1.63928
1.64617
1.65179
1.65428
1.65482
1.6548
1.65426
1.65283
1.65003
1.64534
1.63883
1.63159
1.62534
1.62149
1.62002
1.62002
1.62131
1.62449
1.63002
1.63702
1.64265
1.64505
1.64582
1.64594
1.64506
1.6423
1.63753
1.6333
1.63232
1.63265
1.63368
1.63539
1.63767
1.64033
1.64273
1.64396
1.64351
1.64204
1.64044
1.63865
1.63611
1.63166
1.62524
1.61852
1.61376
1.61148
1.61073
1.61092
1.61205
1.61438
1.61814
1.62316
1.62886
1.63511
1.64167
1.64836
1.65519
1.66226
1.6697
1.67756
1.68587
1.69465
1.70393
1.71399
1.72555
1.74
1.75894
1.78003
1.79171
1.79274
1.79093
1.78019
1.74476
1.66895
1.58586
1.55394
1.55114
1.55113
1.55127
1.55162
1.55212
1.55262
1.553
1.55328
1.55353
1.55378
1.55407
1.55439
1.55473
1.55507
1.5554
1.55573
1.55605
1.55638
1.55671
1.55705
1.5574
1.55774
1.55811
1.55844
1.55899
15.8307
0.176969
0.184045
0.218165
0.224144
0.222386
0.22182
0.219231
0.214227
0.208087
0.180162
0.137496
0.129407
0.130365
0.134751
0.141178
0.147859
0.154421
0.16099
0.167802
0.175176
0.183296
0.19166
0.197239
0.198273
0.196934
0.188374
0.156385
0.130914
0.129128
0.130419
0.134223
0.138251
0.141384
0.143923
0.146309
0.148765
0.151306
0.15385
0.156485
0.15982
0.16526
0.1716
0.172898
0.170914
0.15814
0.133065
0.125825
0.125966
0.128
0.131709
0.135319
0.138264
0.140936
0.143799
0.147086
0.150721
0.154562
0.158718
0.163889
0.1713
0.180845
0.185341
0.185117
0.171628
0.154587
0.152986
0.155362
0.160732
0.166935
0.172093
0.176128
0.179696
0.18331
0.187174
0.191624
0.197797
0.206751
0.216163
0.219575
0.217015
0.20194
0.191503
0.1932
0.198421
0.207317
0.217006
0.225246
0.23217
0.239017
0.246836
0.257225
0.272009
0.290072
0.299946
0.303015
0.295225
0.291782
0.302825
0.322153
0.348115
0.374756
0.401472
0.4331
0.474968
0.519445
0.550625
0.565735
0.581162
0.62857
0.704617
0.815461
0.959108
1.09663
1.19135
1.25302
1.32381
1.41648
1.54159
1.59898
1.60587
1.58589
1.58694
1.60416
1.63017
1.63638
1.63351
1.62513
1.62362
1.62548
1.62816
1.62846
1.62734
1.62533
1.62528
1.62632
1.6278
1.62899
1.63002
1.63129
1.63347
1.63658
1.63901
1.63973
1.63988
1.63945
1.63853
1.63741
1.63631
1.63534
1.63459
1.63405
1.63357
1.63302
1.63251
1.63235
1.63261
1.63316
1.63407
1.63541
1.63718
1.63928
1.64106
1.64192
1.64221
1.6422
1.64185
1.64101
1.63957
1.63751
1.63496
1.63218
1.62954
1.62776
1.62722
1.62741
1.62809
1.62937
1.63146
1.6345
1.63808
1.64114
1.64276
1.64331
1.64341
1.64309
1.64207
1.64005
1.63691
1.63298
1.62915
1.62635
1.62485
1.62434
1.62438
1.62494
1.62622
1.62865
1.6324
1.6374
1.64317
1.64847
1.65151
1.65233
1.65242
1.65204
1.65086
1.64852
1.6448
1.63995
1.63489
1.63064
1.62759
1.62601
1.62578
1.62693
1.62987
1.63493
1.64128
1.64617
1.64805
1.64849
1.64825
1.64684
1.64327
1.63753
1.63156
1.62812
1.62665
1.62566
1.62482
1.62434
1.62478
1.62683
1.63068
1.63514
1.63792
1.63876
1.6391
1.63838
1.63625
1.63245
1.62743
1.6226
1.61924
1.61739
1.61657
1.61647
1.61724
1.61932
1.62305
1.62836
1.63455
1.64125
1.64821
1.65537
1.66273
1.67037
1.67835
1.68671
1.69546
1.70465
1.71458
1.72595
1.74013
1.75866
1.77914
1.79026
1.79118
1.78935
1.77868
1.74376
1.66899
1.58635
1.55406
1.55115
1.55114
1.55127
1.55161
1.55212
1.55262
1.553
1.55328
1.55353
1.55379
1.55407
1.55439
1.55473
1.55507
1.5554
1.55573
1.55605
1.55638
1.55671
1.55705
1.5574
1.55775
1.55811
1.55844
1.55899
15.9009
0.120061
0.184536
0.218064
0.22374
0.222099
0.221609
0.218992
0.214063
0.208289
0.182013
0.139076
0.129941
0.130739
0.134929
0.141272
0.147918
0.154446
0.160986
0.167764
0.175028
0.183034
0.191393
0.196985
0.198039
0.196731
0.188661
0.157724
0.131371
0.129278
0.13048
0.13422
0.138273
0.141441
0.143993
0.146374
0.148816
0.151339
0.15386
0.156459
0.159726
0.16507
0.171444
0.172899
0.170981
0.158513
0.133398
0.125859
0.12598
0.127984
0.131678
0.135286
0.138217
0.140875
0.143735
0.147029
0.150676
0.154536
0.158733
0.163979
0.171517
0.18135
0.18611
0.186058
0.172616
0.155432
0.153852
0.156353
0.161902
0.168323
0.17363
0.177767
0.181467
0.185243
0.189294
0.193971
0.200506
0.210108
0.219929
0.22341
0.220007
0.203641
0.19359
0.195482
0.200804
0.20972
0.219005
0.226537
0.232769
0.239024
0.2465
0.256695
0.271435
0.289331
0.298749
0.301036
0.292603
0.289414
0.300597
0.320266
0.346508
0.37346
0.400475
0.432273
0.474331
0.519508
0.549866
0.563665
0.575225
0.617952
0.687293
0.789118
0.922181
1.05932
1.15603
1.22452
1.2967
1.38922
1.51924
1.59138
1.60546
1.58672
1.58507
1.60031
1.62741
1.63591
1.63397
1.62549
1.62314
1.62487
1.62792
1.62854
1.62777
1.62591
1.6258
1.62685
1.62841
1.62959
1.63052
1.63159
1.6334
1.63613
1.63844
1.63918
1.63935
1.63894
1.63807
1.63706
1.63615
1.63546
1.63504
1.6348
1.63457
1.63418
1.63364
1.6333
1.63344
1.63387
1.63462
1.63578
1.63736
1.63923
1.64072
1.64139
1.64162
1.6416
1.64126
1.64052
1.63933
1.63772
1.63588
1.63399
1.63213
1.6304
1.62938
1.62927
1.62973
1.63073
1.63235
1.63474
1.63763
1.64011
1.6414
1.64186
1.6419
1.64148
1.64036
1.6384
1.6357
1.63271
1.6301
1.62813
1.62667
1.62585
1.62568
1.62606
1.6271
1.62905
1.63213
1.63613
1.64083
1.64551
1.64881
1.65
1.65023
1.64996
1.64898
1.64695
1.64383
1.6403
1.63742
1.63543
1.63383
1.6327
1.63239
1.63333
1.63587
1.64015
1.64533
1.64884
1.64971
1.6497
1.64914
1.64729
1.6433
1.63694
1.62953
1.62364
1.61997
1.61725
1.6149
1.61333
1.61308
1.61481
1.61918
1.62566
1.63227
1.63653
1.63813
1.63878
1.63824
1.63654
1.63361
1.62992
1.62657
1.62426
1.62283
1.62209
1.62198
1.62273
1.62489
1.62893
1.63468
1.6413
1.64831
1.65558
1.66311
1.67093
1.67907
1.68753
1.6963
1.70546
1.71526
1.72642
1.74027
1.75829
1.77802
1.7885
1.78932
1.78745
1.77688
1.74258
1.66909
1.58698
1.55422
1.55117
1.55115
1.55127
1.55161
1.5521
1.55261
1.553
1.55328
1.55353
1.55379
1.55407
1.55439
1.55473
1.55507
1.5554
1.55573
1.55605
1.55638
1.55671
1.55705
1.5574
1.55775
1.55811
1.55844
1.55899
15.9098
0.123372
0.184031
0.217675
0.223561
0.221978
0.221568
0.21893
0.214125
0.208618
0.183389
0.140212
0.130227
0.130901
0.134939
0.141227
0.147863
0.154366
0.160848
0.167558
0.174806
0.182862
0.191289
0.196952
0.198055
0.196758
0.189024
0.158789
0.131755
0.129422
0.130556
0.13425
0.13833
0.141528
0.144092
0.146471
0.148896
0.151389
0.153879
0.156442
0.159644
0.164908
0.171344
0.172942
0.17112
0.158998
0.133857
0.125967
0.126056
0.12802
0.13168
0.135269
0.138184
0.140831
0.143677
0.146952
0.150584
0.154445
0.158653
0.163915
0.171518
0.181527
0.186463
0.186599
0.173342
0.156002
0.154381
0.156973
0.162664
0.169223
0.174636
0.178888
0.182728
0.186679
0.190961
0.195903
0.202755
0.2129
0.223271
0.226906
0.222914
0.20561
0.195927
0.197966
0.203437
0.212345
0.221149
0.227979
0.233576
0.239344
0.246495
0.256657
0.271603
0.289445
0.298593
0.299934
0.290336
0.28736
0.298578
0.318482
0.344784
0.371753
0.398944
0.430953
0.473271
0.519311
0.549447
0.563019
0.5724
0.612714
0.678661
0.776076
0.904013
1.04041
1.13778
1.20863
1.28041
1.37283
1.50524
1.58676
1.60516
1.5871
1.58322
1.59743
1.62528
1.63566
1.63439
1.62588
1.62286
1.62453
1.62786
1.62882
1.62834
1.62668
1.62652
1.62758
1.62919
1.63033
1.63116
1.63207
1.63354
1.63588
1.63795
1.63864
1.63877
1.63835
1.63752
1.63665
1.63597
1.63559
1.63551
1.63555
1.63554
1.63531
1.6348
1.63428
1.63421
1.63451
1.63508
1.63605
1.63745
1.6391
1.6403
1.64078
1.64094
1.64087
1.64055
1.63993
1.639
1.63784
1.63663
1.63553
1.63445
1.63321
1.63193
1.63126
1.63139
1.63204
1.6332
1.63494
1.63708
1.63886
1.63976
1.64008
1.64004
1.63953
1.63838
1.63658
1.63438
1.6324
1.63107
1.63002
1.62893
1.62794
1.62747
1.62765
1.62843
1.62996
1.63239
1.63561
1.63934
1.64319
1.64631
1.6478
1.64819
1.64805
1.6473
1.64566
1.64323
1.64091
1.63996
1.63977
1.63963
1.6394
1.63927
1.63987
1.64169
1.64469
1.64795
1.64991
1.6504
1.65026
1.64951
1.64718
1.64234
1.63481
1.62604
1.61841
1.61307
1.60941
1.60685
1.60548
1.60541
1.60701
1.61093
1.61712
1.62451
1.63135
1.63593
1.63791
1.63859
1.63823
1.63696
1.63475
1.63217
1.63016
1.62885
1.62808
1.62776
1.62803
1.62925
1.63188
1.63618
1.64202
1.64882
1.65606
1.66361
1.67147
1.67969
1.68825
1.6971
1.70627
1.71598
1.72691
1.74036
1.75777
1.77665
1.78646
1.78716
1.78525
1.77481
1.74126
1.66928
1.58779
1.55442
1.55118
1.55116
1.55128
1.5516
1.55209
1.5526
1.55299
1.55329
1.55354
1.55379
1.55408
1.55439
1.55473
1.55507
1.5554
1.55573
1.55605
1.55638
1.55671
1.55705
1.5574
1.55775
1.55811
1.55844
1.55899
15.9277
0.116131
0.182654
0.217332
0.223496
0.221949
0.221588
0.218939
0.214243
0.208834
0.184281
0.140902
0.13026
0.130871
0.134814
0.141064
0.147683
0.154152
0.160596
0.167311
0.174658
0.182872
0.191413
0.197123
0.198333
0.197097
0.189627
0.159677
0.132086
0.129611
0.130705
0.134372
0.138478
0.14171
0.14429
0.146665
0.149067
0.15152
0.153958
0.156468
0.159621
0.164838
0.17132
0.173061
0.17133
0.159549
0.13441
0.126175
0.126224
0.128132
0.131763
0.135344
0.138237
0.140843
0.143648
0.146889
0.150505
0.154358
0.158546
0.163769
0.171348
0.181427
0.186529
0.186828
0.173876
0.156331
0.154571
0.157205
0.162944
0.169592
0.175128
0.179512
0.183484
0.187575
0.192015
0.197148
0.204245
0.214721
0.22562
0.229473
0.225267
0.207474
0.197984
0.200137
0.205723
0.214604
0.223119
0.22951
0.23467
0.24004
0.246883
0.257142
0.272522
0.290272
0.299086
0.299344
0.288599
0.28609
0.297352
0.317384
0.343512
0.37021
0.397315
0.429457
0.472148
0.519093
0.549481
0.563424
0.571976
0.611532
0.676381
0.77247
0.899064
1.0352
1.13235
1.20302
1.27435
1.36691
1.50054
1.58584
1.60567
1.58705
1.58185
1.59586
1.62418
1.63559
1.63474
1.62621
1.62273
1.6244
1.62798
1.62926
1.629
1.62754
1.62742
1.62848
1.63012
1.63122
1.63195
1.63273
1.63389
1.63582
1.63756
1.63812
1.63818
1.63768
1.63688
1.63618
1.63583
1.63579
1.63602
1.63628
1.63642
1.63633
1.63592
1.63528
1.63493
1.63509
1.63549
1.63626
1.63747
1.63885
1.63974
1.64006
1.64014
1.63999
1.63963
1.6391
1.63846
1.6378
1.63726
1.63682
1.63636
1.63567
1.63463
1.6335
1.633
1.63323
1.63391
1.635
1.63636
1.63743
1.63795
1.63812
1.63796
1.63734
1.6362
1.63468
1.6332
1.63246
1.63223
1.63196
1.63144
1.63065
1.62995
1.62979
1.63027
1.6314
1.63321
1.63568
1.6385
1.64148
1.64412
1.64574
1.64632
1.64635
1.64585
1.64464
1.64304
1.64235
1.64272
1.64362
1.64465
1.6454
1.64582
1.6461
1.64673
1.6479
1.64916
1.65022
1.65055
1.6503
1.64921
1.64623
1.64041
1.63185
1.62211
1.6134
1.60716
1.60337
1.60141
1.60066
1.60081
1.6022
1.60544
1.61061
1.6171
1.62409
1.63054
1.63529
1.63772
1.63841
1.63813
1.63711
1.63561
1.6344
1.63371
1.63343
1.63347
1.63387
1.63489
1.63685
1.64004
1.6446
1.65039
1.6571
1.6644
1.67214
1.68033
1.68891
1.69782
1.70702
1.71666
1.72736
1.74037
1.75707
1.775
1.78412
1.78473
1.78277
1.77248
1.73981
1.66957
1.58879
1.55468
1.5512
1.55117
1.55129
1.5516
1.55208
1.55259
1.55299
1.55329
1.55354
1.5538
1.55408
1.55439
1.55473
1.55507
1.5554
1.55573
1.55605
1.55638
1.55671
1.55705
1.5574
1.55775
1.55811
1.55844
1.55899
15.9428
0.107533
0.181333
0.216829
0.2235
0.221983
0.22162
0.218908
0.214148
0.208777
0.184804
0.141339
0.13013
0.130678
0.134541
0.140757
0.147379
0.153872
0.160368
0.167187
0.174707
0.18316
0.191843
0.197626
0.198973
0.197771
0.190382
0.160318
0.132419
0.129889
0.130966
0.134625
0.138755
0.142027
0.144641
0.147026
0.14941
0.151817
0.154191
0.156631
0.159722
0.164895
0.171422
0.173271
0.171603
0.160106
0.134988
0.12643
0.126438
0.128296
0.131915
0.135506
0.138392
0.140956
0.143687
0.14686
0.150425
0.154241
0.158397
0.16355
0.171014
0.181067
0.186341
0.186817
0.174313
0.156542
0.154552
0.157175
0.16292
0.169636
0.175268
0.179762
0.183858
0.188067
0.192603
0.197784
0.204881
0.215485
0.226798
0.230916
0.226866
0.209053
0.199413
0.201619
0.20731
0.216254
0.22464
0.230845
0.235894
0.241188
0.248065
0.258533
0.274365
0.291595
0.300119
0.299031
0.287263
0.285397
0.296788
0.31686
0.342659
0.369043
0.396104
0.428478
0.471553
0.519239
0.549974
0.564203
0.572701
0.612313
0.677211
0.773551
0.900176
1.03558
1.13221
1.20254
1.2741
1.36682
1.50062
1.58488
1.60449
1.58607
1.58139
1.59564
1.62417
1.63545
1.6345
1.62597
1.62276
1.62456
1.62841
1.62985
1.6297
1.62842
1.62842
1.62952
1.6312
1.63226
1.63285
1.63353
1.63443
1.63594
1.63726
1.63768
1.63759
1.63695
1.63615
1.63571
1.63574
1.63607
1.6365
1.63693
1.63718
1.63722
1.63694
1.63631
1.63571
1.63564
1.63592
1.63649
1.63745
1.63849
1.63908
1.63929
1.63924
1.63894
1.63843
1.63791
1.63762
1.63764
1.63779
1.63788
1.63785
1.63759
1.63696
1.63593
1.6348
1.63427
1.63437
1.63475
1.63536
1.63588
1.63611
1.6361
1.63575
1.63499
1.63392
1.633
1.63282
1.63296
1.63346
1.63394
1.63408
1.63383
1.63321
1.63265
1.63263
1.63327
1.63447
1.63614
1.63814
1.64034
1.64247
1.64396
1.64464
1.64484
1.64467
1.64416
1.64389
1.64442
1.64556
1.64726
1.64903
1.65038
1.6511
1.65114
1.65034
1.64934
1.64932
1.64949
1.64955
1.64899
1.64723
1.64341
1.6369
1.62801
1.61814
1.60935
1.60326
1.59991
1.59845
1.59811
1.59827
1.59935
1.60191
1.60603
1.6113
1.61727
1.62359
1.62962
1.63438
1.63707
1.63782
1.63769
1.63732
1.63706
1.63716
1.63761
1.63835
1.63937
1.64077
1.64275
1.64549
1.64914
1.65378
1.6594
1.66593
1.67323
1.68117
1.68964
1.69851
1.70768
1.71722
1.72766
1.74018
1.7561
1.77305
1.78151
1.78203
1.78002
1.76993
1.73825
1.66999
1.59001
1.55499
1.55123
1.55119
1.55129
1.5516
1.55207
1.55257
1.55298
1.55329
1.55354
1.5538
1.55408
1.55439
1.55473
1.55507
1.5554
1.55573
1.55605
1.55638
1.55671
1.55705
1.5574
1.55775
1.55811
1.55844
1.55899
15.8822
0.171113
0.180225
0.216234
0.223608
0.222144
0.221658
0.218824
0.213904
0.208587
0.185164
0.141629
0.129845
0.130359
0.134172
0.140394
0.147072
0.153649
0.160245
0.167176
0.174875
0.183589
0.192501
0.198349
0.199727
0.1985
0.191016
0.160674
0.132643
0.130116
0.131187
0.134841
0.138991
0.142304
0.144965
0.147391
0.149801
0.152212
0.154572
0.156986
0.160047
0.16518
0.171673
0.173552
0.171914
0.160633
0.135559
0.126717
0.126681
0.128472
0.132042
0.135609
0.138499
0.141042
0.143698
0.146778
0.150246
0.153976
0.158067
0.163135
0.170424
0.180356
0.185815
0.18652
0.17461
0.156676
0.154372
0.156943
0.162658
0.169462
0.175215
0.17981
0.183975
0.188216
0.192754
0.197929
0.204987
0.215513
0.22715
0.231454
0.227907
0.210306
0.200188
0.202361
0.208086
0.217054
0.225483
0.231869
0.237224
0.242901
0.250117
0.261018
0.277314
0.293777
0.301783
0.299278
0.286591
0.28531
0.296832
0.316859
0.342325
0.368407
0.395439
0.428086
0.471795
0.519749
0.550862
0.565365
0.575139
0.615865
0.682136
0.780022
0.908216
1.04212
1.13738
1.20636
1.27859
1.3718
1.50457
1.58432
1.60259
1.58492
1.58212
1.59714
1.62523
1.63525
1.63393
1.62546
1.62301
1.62511
1.62916
1.63055
1.63039
1.62924
1.62948
1.6307
1.63246
1.63346
1.63388
1.63432
1.63505
1.63617
1.63699
1.63725
1.63694
1.63614
1.63546
1.63536
1.63568
1.63621
1.63688
1.63753
1.63787
1.638
1.63785
1.63733
1.63661
1.63622
1.63636
1.63673
1.63738
1.63803
1.63835
1.63841
1.63819
1.63762
1.63691
1.63652
1.63666
1.63721
1.63804
1.63873
1.63902
1.63904
1.63876
1.63804
1.63684
1.63537
1.63437
1.63422
1.63424
1.63433
1.63432
1.63407
1.6335
1.63269
1.6321
1.63212
1.63259
1.63349
1.63485
1.63621
1.63697
1.63719
1.63699
1.63633
1.63562
1.63549
1.63599
1.63691
1.63816
1.63972
1.64132
1.64244
1.64304
1.64342
1.64386
1.64444
1.64525
1.64658
1.64849
1.65075
1.65281
1.65413
1.65465
1.65427
1.65263
1.64999
1.64833
1.64775
1.64723
1.64604
1.6435
1.639
1.6323
1.62401
1.61554
1.60838
1.60302
1.59944
1.59755
1.59702
1.59701
1.5977
1.59956
1.60273
1.60689
1.61172
1.61709
1.62286
1.62848
1.63299
1.63586
1.63723
1.63773
1.6383
1.63921
1.64047
1.64209
1.64404
1.64627
1.64877
1.65161
1.65488
1.65874
1.66333
1.66878
1.6752
1.68255
1.69067
1.69933
1.70833
1.71765
1.72774
1.73968
1.75477
1.77077
1.77866
1.7791
1.77704
1.76718
1.73662
1.67054
1.59145
1.55538
1.55126
1.55121
1.5513
1.55159
1.55206
1.55256
1.55298
1.55329
1.55355
1.5538
1.55408
1.5544
1.55473
1.55507
1.5554
1.55573
1.55605
1.55638
1.55671
1.55705
1.5574
1.55775
1.55811
1.55844
1.55899
15.9019
0.152334
0.178888
0.215746
0.223747
0.222351
0.221771
0.218868
0.213831
0.208563
0.18549
0.14174
0.129536
0.130054
0.133891
0.140158
0.146882
0.153508
0.160167
0.167206
0.175096
0.184116
0.193262
0.199023
0.200246
0.198935
0.191368
0.16088
0.132776
0.13025
0.13131
0.134949
0.139111
0.14246
0.145163
0.147636
0.150099
0.152572
0.15499
0.157452
0.160537
0.165655
0.172054
0.173883
0.172242
0.161123
0.136097
0.126996
0.126907
0.128615
0.132117
0.135644
0.138483
0.140988
0.143592
0.14656
0.149906
0.153514
0.157484
0.16241
0.16951
0.179246
0.184828
0.185813
0.174658
0.156632
0.153917
0.156441
0.162082
0.168957
0.174878
0.179614
0.183852
0.188152
0.192716
0.197841
0.204703
0.214962
0.226938
0.231491
0.228594
0.211328
0.20052
0.202558
0.208199
0.217188
0.225941
0.232868
0.238798
0.244987
0.25276
0.264257
0.281058
0.296706
0.304205
0.300411
0.286982
0.286241
0.297839
0.317858
0.342992
0.36868
0.39559
0.428533
0.472901
0.52094
0.553067
0.568396
0.58131
0.625085
0.695431
0.798261
0.931855
1.06381
1.15663
1.22086
1.29297
1.38669
1.51694
1.58697
1.60142
1.58349
1.58351
1.6001
1.62719
1.63516
1.6331
1.62476
1.62339
1.6259
1.63002
1.63115
1.63092
1.63007
1.63059
1.63203
1.63389
1.63479
1.635
1.63506
1.63562
1.63631
1.63673
1.63673
1.63615
1.63526
1.63484
1.63504
1.63553
1.63626
1.63715
1.63803
1.63852
1.63872
1.63866
1.63829
1.63761
1.63698
1.63676
1.63694
1.63723
1.63748
1.63757
1.63742
1.6369
1.63602
1.63527
1.63515
1.63556
1.63648
1.63789
1.63934
1.64005
1.64025
1.64014
1.63959
1.63844
1.63666
1.6347
1.63347
1.63305
1.63284
1.63256
1.63205
1.63138
1.63093
1.63102
1.63158
1.63262
1.63424
1.63644
1.63866
1.64008
1.64069
1.64082
1.64045
1.63941
1.63817
1.63767
1.6379
1.6385
1.63945
1.64045
1.64119
1.64179
1.64251
1.64353
1.64491
1.64668
1.64888
1.65146
1.65403
1.65593
1.65678
1.65679
1.65587
1.6535
1.64982