/*--------------------------------*- C++ -*----------------------------------*\
| =========                 |                                                 |
| \\      /  F ield         | OpenFOAM: The Open Source CFD Toolbox           |
|  \\    /   O peration     | Version:  2306                                  |
|   \\  /    A nd           | Website:  www.openfoam.com                      |
|    \\/     M anipulation  |                                                 |
\*---------------------------------------------------------------------------*/
FoamFile
{
    version     2.0;
    format      ascii;
    arch        "LSB;label=32;scalar=64";
    class       volScalarField;
    location    "0.06";
    object      T;
}
// * * * * * * * * * * * * * * * * * * * * * * * * * * * * * * * * * * * * * //

dimensions      [0 0 0 1 0 0 0];

internalField   nonuniform List<scalar> 
6000
(
4191.58
1849.28
2721.12
3192.26
3288.26
3290.03
3308.77
3318.44
3313.79
3311.8
3122.43
2794.38
2759.59
2795.76
2862.44
2943.39
3027.5
3112.61
3200.34
3293.69
3396.6
3508.67
3614.34
3686.81
3723.81
3748.67
3697.11
3410.71
3217.09
3233.14
3280.58
3345.89
3411.28
3469.63
3524.03
3578.26
3633.93
3691.03
3749.11
3809.59
3878.8
3969.84
4067.13
4108.03
4117.59
4018.22
3755.69
3681.4
3693.85
3725.4
3766.68
3797.46
3811.2
3814.04
3811.56
3805.05
3794.12
3778.96
3763.33
3753.05
3756.92
3777.16
3751.66
3677.24
3514.65
3326.41
3271.37
3252.46
3250.3
3254.27
3250.29
3234.16
3212.06
3189.03
3166.27
3145.22
3130.4
3126.24
3129.16
3090.6
3010.82
2870.42
2728.24
2661.06
2614.67
2579.84
2545.85
2500.86
2444.75
2383.56
2322.11
2264.72
2215.19
2167.67
2087.08
1983.46
1853.44
1746.95
1679.7
1623.53
1574.4
1518.45
1453.47
1384.52
1312.74
1223.21
1110.07
980.784
860.508
763.602
682.191
613.275
551.031
487.64
436.435
401.582
382.545
375.227
370.091
363.926
357.848
354.946
354.252
355.058
355.266
354.512
353.408
352.981
353.015
353.291
353.346
353.196
352.794
352.409
352.171
351.917
351.643
351.378
351.174
351.09
351.171
351.369
351.434
351.373
351.264
351.116
350.933
350.725
350.497
350.25
349.995
349.755
349.549
349.386
349.269
349.194
349.14
349.112
349.126
349.208
349.367
349.574
349.751
349.818
349.8
349.738
349.644
349.486
349.202
348.745
348.165
347.668
347.431
347.359
347.333
347.319
347.352
347.481
347.737
348.11
348.525
348.84
348.967
348.979
348.956
348.908
348.811
348.604
348.208
347.61
346.995
346.665
346.585
346.571
346.572
346.63
346.813
347.193
347.812
348.601
349.308
349.681
349.782
349.791
349.753
349.666
349.447
348.951
348.029
346.733
345.579
345.075
344.988
344.989
345.027
345.163
345.475
346.015
346.688
347.103
347.171
347.167
347.076
346.945
346.902
347.012
347.232
347.665
348.352
349.223
350.098
350.777
351.112
351.171
351.033
350.659
349.662
347.841
345.652
344.135
343.54
343.383
343.346
343.344
343.406
343.59
343.926
344.411
344.991
345.581
346.115
346.582
347.004
347.418
347.852
348.325
348.851
349.438
350.08
350.772
351.509
352.292
353.143
354.118
355.33
356.917
358.707
359.74
359.834
359.677
358.781
355.812
349.357
342.118
339.334
339.095
339.089
339.094
339.118
339.156
339.191
339.216
339.232
339.246
339.261
339.279
339.3
339.323
339.346
339.369
339.391
339.412
339.434
339.457
339.479
339.503
339.527
339.552
339.572
339.613
4191.21
1836.59
2719.99
3191.56
3287.42
3289.32
3308.33
3318.34
3313.58
3311.3
3123.27
2795.44
2759.95
2795.91
2862.27
2942.81
3026.35
3110.88
3198.17
3291.15
3393.11
3503.37
3608.91
3683.96
3723.67
3749.72
3702.56
3422.38
3221.17
3236.09
3283.15
3348.41
3413.91
3472.29
3526.62
3580.68
3636.11
3692.84
3750.39
3810.19
3878.68
3969.17
4065.97
4106.57
4116.05
4017.71
3755.55
3680.38
3692.6
3723.89
3764.98
3795.6
3809.18
3811.93
3809.45
3802.96
3791.84
3776.28
3760.19
3749.59
3753.41
3773.9
3748.37
3673.85
3511.08
3322.75
3267.9
3249.11
3247.18
3251.27
3247.49
3232.09
3210.97
3188.55
3165.84
3144.4
3129.05
3124.55
3126.79
3086.47
3006.12
2866.12
2726.25
2660.68
2614.72
2580.18
2546.33
2501.32
2445.13
2383.81
2322.2
2264.65
2215.01
2167.44
2087.26
1984.04
1854.67
1748.4
1680.84
1624.18
1574.36
1517.63
1452.06
1382.87
1311.39
1222.65
1110.17
981.521
861.534
765.085
683.991
615.243
553.371
490.064
438.322
402.665
383.109
375.515
370.597
364.377
358.079
354.914
354.125
354.905
355.274
354.596
353.476
352.967
352.98
353.237
353.312
353.177
352.793
352.4
352.156
351.903
351.631
351.368
351.165
351.078
351.151
351.345
351.416
351.359
351.254
351.109
350.929
350.725
350.501
350.26
350.013
349.784
349.584
349.421
349.302
349.225
349.168
349.137
349.148
349.224
349.375
349.569
349.73
349.794
349.778
349.72
349.627
349.476
349.213
348.79
348.241
347.739
347.475
347.392
347.362
347.351
347.382
347.503
347.745
348.105
348.516
348.835
348.964
348.976
348.954
348.9
348.797
348.59
348.203
347.621
347.018
346.683
346.597
346.579
346.579
346.628
346.79
347.13
347.698
348.457
349.18
349.583
349.691
349.699
349.668
349.578
349.372
348.925
348.109
346.967
345.872
345.289
345.15
345.134
345.163
345.286
345.589
346.129
346.802
347.241
347.326
347.331
347.25
347.101
346.997
347.06
347.229
347.548
348.036
348.704
349.512
350.236
350.625
350.71
350.58
350.156
349.244
347.801
346.201
344.923
344.11
343.706
343.563
343.521
343.549
343.69
343.992
344.431
344.954
345.506
346.036
346.527
346.983
347.423
347.871
348.352
348.879
349.461
350.1
350.791
351.526
352.306
353.151
354.12
355.326
356.907
358.692
359.71
359.799
359.642
358.751
355.795
349.358
342.128
339.337
339.095
339.089
339.094
339.118
339.156
339.191
339.216
339.232
339.246
339.261
339.279
339.3
339.323
339.346
339.369
339.391
339.412
339.434
339.457
339.479
339.503
339.527
339.552
339.572
339.613
4191.41
2407.11
2701.55
3189.6
3287.23
3289.67
3309.05
3319.64
3314.69
3312.54
3127.03
2799.59
2761.74
2797.05
2862.67
2942.78
3026
3110
3196.38
3287.87
3387.59
3495.27
3600.96
3679.25
3721.02
3747.75
3708.3
3439.44
3226.51
3239.17
3285.29
3350.54
3416.45
3475.14
3529.51
3583.4
3638.54
3694.93
3752.08
3811.32
3878.91
3968.02
4063.94
4104.46
4114.19
4016.83
3755.31
3678.97
3690.73
3721.46
3762.03
3792.04
3804.93
3807.27
3804.58
3797.66
3786.01
3769.73
3752.77
3741.42
3744.88
3765.4
3739.76
3664.43
3500.46
3312.09
3257.49
3238.71
3237.07
3241.47
3238.02
3223.07
3202.36
3180.33
3158.09
3137.1
3122.15
3118
3118.98
3076.62
2995.32
2854.84
2719.17
2657.05
2612.72
2579.82
2546.81
2502.1
2446.28
2385.35
2324.12
2266.77
2217.15
2169.52
2089.6
1986.74
1857.79
1751.57
1683.42
1625.99
1574.95
1516.47
1449.13
1378.91
1307.75
1220.77
1110.51
984.304
866.24
771.659
691.859
623.696
562.357
498.876
445.392
407.173
385.722
376.791
371.866
365.441
358.836
355.063
354.045
354.688
355.288
354.734
353.642
353.002
352.956
353.153
353.249
353.132
352.781
352.38
352.124
351.872
351.605
351.349
351.151
351.059
351.118
351.298
351.382
351.331
351.231
351.091
350.914
350.712
350.495
350.266
350.037
349.821
349.628
349.463
349.34
349.26
349.205
349.176
349.188
349.259
349.397
349.572
349.716
349.769
349.748
349.686
349.589
349.441
349.195
348.822
348.331
347.844
347.546
347.444
347.413
347.403
347.434
347.548
347.773
348.11
348.501
348.811
348.942
348.956
348.934
348.878
348.775
348.568
348.195
347.645
347.069
346.724
346.627
346.606
346.607
346.655
346.804
347.102
347.604
348.299
349.008
349.438
349.552
349.56
349.524
349.427
349.225
348.837
348.186
347.251
346.26
345.594
345.345
345.291
345.311
345.425
345.716
346.23
346.87
347.345
347.494
347.53
347.508
347.411
347.241
347.119
347.191
347.342
347.651
348.161
348.855
349.563
349.965
350.023
349.824
349.334
348.536
347.591
346.703
345.845
344.997
344.31
343.944
343.829
343.822
343.91
344.135
344.497
344.943
345.424
345.923
346.422
346.911
347.389
347.866
348.367
348.906
349.493
350.132
350.82
351.551
352.327
353.167
354.13
355.331
356.905
358.67
359.662
359.745
359.587
358.697
355.757
349.356
342.143
339.34
339.096
339.09
339.094
339.118
339.155
339.191
339.216
339.232
339.246
339.261
339.279
339.3
339.323
339.346
339.369
339.391
339.412
339.434
339.457
339.479
339.503
339.527
339.552
339.572
339.613
4189.97
2089.72
2710.39
3175.65
3284.35
3287.57
3307.9
3318.48
3314.19
3314.08
3137.27
2808.88
2765.19
2799.26
2863.72
2943.31
3026.22
3109.56
3194.67
3284.33
3381.44
3486.34
3591.87
3673.69
3719.06
3746.37
3714.14
3458.82
3233.06
3242.85
3287.61
3352.77
3419.04
3477.73
3531.71
3585.09
3639.79
3695.82
3752.64
3811.41
3878.14
3966
4061.25
4101.87
4111.82
4015.84
3755.01
3677.19
3688.41
3718.4
3758.15
3787.08
3798.58
3799.88
3796.41
3788.39
3775.53
3758.16
3740.1
3727.66
3730.07
3749.96
3723.78
3647.02
3481.34
3293.03
3238.55
3219.61
3218.14
3222.49
3218.63
3203.23
3182.39
3160.53
3138.64
3118.26
3104.34
3101.76
3101.81
3057.96
2975.6
2834.37
2704.88
2648
2606.66
2576.8
2545.92
2502.39
2447.43
2387.63
2327.54
2271.28
2222.71
2175.64
2096.04
1993.35
1864.5
1757.86
1688.48
1629.61
1576.65
1515.76
1445.86
1373.89
1302.88
1218.48
1111.95
990.458
876.405
785.613
708.587
641.862
581.074
517.088
460.15
417.2
391.795
379.623
374.028
366.986
360.087
355.451
354.106
354.482
355.3
354.865
353.841
353.036
352.923
353.054
353.168
353.068
352.749
352.345
352.076
351.828
351.574
351.327
351.132
351.033
351.071
351.232
351.328
351.286
351.195
351.062
350.892
350.696
350.487
350.272
350.06
349.863
349.684
349.523
349.395
349.311
349.258
349.23
349.239
349.3
349.418
349.57
349.694
349.735
349.708
349.643
349.544
349.401
349.181
348.858
348.439
347.997
347.676
347.541
347.499
347.488
347.512
347.613
347.816
348.125
348.487
348.776
348.901
348.916
348.895
348.835
348.728
348.524
348.171
347.672
347.148
346.805
346.686
346.654
346.653
346.691
346.818
347.079
347.511
348.11
348.758
349.209
349.353
349.368
349.338
349.251
349.08
348.765
348.242
347.509
346.69
346.038
345.707
345.604
345.605
345.705
345.978
346.464
347.081
347.57
347.752
347.8
347.797
347.712
347.496
347.196
347.072
347.119
347.252
347.527
347.951
348.448
348.827
348.964
348.83
348.453
347.939
347.457
347.052
346.572
345.923
345.188
344.612
344.333
344.247
344.263
344.376
344.605
344.943
345.354
345.813
346.308
346.821
347.339
347.861
348.393
348.949
349.545
350.185
350.869
351.594
352.361
353.192
354.145
355.335
356.892
358.626
359.588
359.666
359.507
358.621
355.704
349.353
342.165
339.346
339.096
339.09
339.094
339.117
339.155
339.191
339.216
339.232
339.246
339.261
339.279
339.3
339.323
339.346
339.369
339.391
339.412
339.434
339.457
339.48
339.503
339.527
339.552
339.572
339.613
4189.38
2102.65
2705.05
3165.48
3279.06
3283.27
3304.55
3315.17
3311.38
3314.4
3151.52
2823.34
2770.08
2802.47
2865.58
2944.48
3026.79
3109.34
3193.4
3281.49
3376.14
3478.4
3583.07
3666.99
3714.53
3742.53
3717.29
3476.72
3239.3
3245.71
3288.75
3353.34
3419.69
3478.34
3531.99
3584.93
3639.27
3695.09
3751.68
3809.99
3876
3962.98
4057.83
4098.79
4109.14
4015.23
3755.26
3675.41
3686.13
3715.26
3753.9
3781.39
3791.29
3791.17
3786.29
3776.7
3762.35
3743.77
3724.54
3710.98
3712.19
3731.39
3704.32
3625.48
3457.34
3268.45
3213.42
3193.87
3191.93
3195.5
3190.44
3173.71
3152.14
3129.86
3107.72
3087.59
3074.61
3073.93
3073.94
3028.98
2945.33
2803.33
2681.45
2631.15
2594.28
2568.98
2541.67
2500.63
2447.29
2389.22
2331.22
2277.11
2230.67
2185.38
2106.64
2004.03
1875.05
1767.72
1696.72
1635.78
1580.34
1516.5
1443.86
1369.82
1298.55
1216.93
1114.76
999.386
890.643
805.179
732.245
667.839
607.629
543.178
481.658
432.513
401.378
384.33
376.994
369.015
361.678
356.091
354.337
354.367
355.284
354.982
354.029
353.085
352.89
352.959
353.077
352.991
352.697
352.296
352.023
351.786
351.546
351.311
351.117
351.007
351.021
351.154
351.257
351.226
351.144
351.017
350.854
350.666
350.466
350.266
350.077
349.904
349.744
349.591
349.459
349.371
349.318
349.288
349.292
349.34
349.438
349.566
349.668
349.693
349.66
349.59
349.491
349.354
349.154
348.879
348.537
348.166
347.848
347.676
347.617
347.602
347.619
347.702
347.877
348.144
348.463
348.723
348.839
348.855
348.834
348.77
348.657
348.454
348.126
347.69
347.241
346.923
346.782
346.736
346.727
346.753
346.858
347.083
347.443
347.939
348.5
348.951
349.138
349.163
349.143
349.07
348.928
348.673
348.257
347.684
347.049
346.498
346.15
346.009
345.994
346.084
346.338
346.793
347.372
347.832
348.019
348.069
348.066
347.971
347.721
347.301
346.926
346.829
346.844
346.913
347.044
347.223
347.434
347.623
347.714
347.663
347.522
347.372
347.207
346.979
346.589
346.031
345.445
345.024
344.816
344.74
344.746
344.829
345.016
345.326
345.742
346.217
346.736
347.28
347.833
348.398
348.982
349.596
350.243
350.927
351.647
352.406
353.227
354.168
355.341
356.873
358.566
359.49
359.561
359.401
358.519
355.633
349.35
342.196
339.354
339.097
339.09
339.095
339.117
339.154
339.19
339.215
339.232
339.246
339.261
339.279
339.3
339.323
339.346
339.369
339.391
339.412
339.434
339.457
339.48
339.503
339.527
339.552
339.572
339.613
4190.62
2805.86
2671.44
3169.31
3273.36
3278.98
3301.16
3312.11
3309.05
3315.11
3166.34
2839.62
2774.94
2805.8
2867.36
2945.46
3027.32
3109.38
3192.63
3279.32
3372.2
3472.78
3577.14
3661.69
3709.55
3737.88
3717.86
3490.6
3244.33
3246.86
3288.23
3352
3418.28
3476.97
3530.44
3583.04
3637.04
3692.62
3748.96
3806.91
3872.49
3958.71
4053.57
4095.58
4106.63
4015.31
3756.03
3673.28
3683.49
3711.74
3749.24
3775.54
3784.52
3783.39
3777.02
3766.06
3750.73
3731.43
3711.34
3696.84
3696.95
3715.41
3687.46
3606.24
3435.13
3244.64
3188.06
3167.25
3164.24
3166.4
3159.25
3140.3
3117.1
3093.45
3070.15
3049.38
3036.68
3037.54
3037.77
2992.13
2906.19
2763.23
2649.58
2606
2574.59
2554.98
2532.23
2494.7
2444.35
2388.83
2333.33
2282.35
2239.13
2196.34
2119.14
2016.73
1887.41
1779.75
1707.45
1644.6
1586.47
1519.37
1443.88
1367.9
1296.02
1216.58
1118.36
1008.94
905.332
825.118
756.434
694.719
635.21
570.695
504.877
449.805
412.428
390.209
380.294
371.295
363.389
356.9
354.639
354.349
355.24
355.077
354.184
353.136
352.842
352.867
352.983
352.911
352.643
352.251
351.977
351.751
351.53
351.304
351.108
350.985
350.976
351.076
351.177
351.154
351.077
350.955
350.799
350.619
350.433
350.253
350.091
349.947
349.809
349.668
349.533
349.434
349.377
349.343
349.339
349.37
349.449
349.557
349.638
349.646
349.608
349.535
349.438
349.308
349.128
348.897
348.626
348.337
348.061
347.859
347.768
347.744
347.751
347.812
347.951
348.172
348.437
348.657
348.756
348.77
348.747
348.678
348.557
348.355
348.058
347.693
347.338
347.07
346.913
346.845
346.827
346.843
346.925
347.109
347.406
347.805
348.271
348.697
348.929
348.978
348.968
348.908
348.785
348.567
348.231
347.8
347.349
346.968
346.688
346.535
346.499
346.575
346.804
347.219
347.74
348.135
348.277
348.298
348.261
348.121
347.803
347.3
346.776
346.467
346.326
346.226
346.14
346.084
346.107
346.266
346.581
346.946
347.166
347.222
347.239
347.164
346.97
346.635
346.196
345.772
345.472
345.302
345.22
345.202
345.254
345.419
345.726
346.167
346.681
347.237
347.815
348.406
349.014
349.645
350.303
350.991
351.708
352.46
353.27
354.195
355.346
356.845
358.489
359.368
359.431
359.269
358.393
355.548
349.351
342.238
339.364
339.098
339.091
339.095
339.116
339.153
339.189
339.215
339.232
339.246
339.261
339.279
339.3
339.323
339.346
339.369
339.391
339.412
339.434
339.457
339.48
339.503
339.527
339.552
339.572
339.613
4188.71
2084.74
2693.49
3156.24
3268.67
3275.45
3298.26
3309.25
3306.6
3314.73
3177.66
2853.75
2778.9
2808.32
2868.61
2945.9
3027.25
3108.81
3191.57
3277.67
3369.33
3468.66
3572.66
3657.01
3704.91
3733.4
3717.11
3500.21
3247.57
3246.31
3286.14
3349.03
3415.22
3473.95
3527.29
3579.68
3633.46
3688.81
3744.92
3802.61
3867.67
3953.12
4048.56
4092.32
4104.06
4016.09
3757.56
3671.09
3680.86
3708.41
3745.26
3771.08
3779.71
3778.2
3771.1
3759.38
3743.37
3723.46
3702.76
3687.75
3687.22
3705.35
3677.03
3594.12
3420.69
3227.59
3168.75
3146.3
3141.82
3142.07
3132.05
3110.36
3084.82
3058.95
3033.68
3011.45
2998.07
2999.65
2999.72
2953.33
2864.09
2719.53
2613.18
2575.15
2548.99
2535.01
2516.83
2483.01
2436.61
2385.03
2333.02
2285.52
2246.18
2206.22
2130.38
2027.87
1897.99
1791
1718.33
1654.56
1594.36
1524.41
1445.93
1367.9
1295.28
1217.32
1121.75
1016.6
916.348
839.866
774.314
714.831
656.127
592.056
523.317
464.091
421.843
395.615
383.309
373.468
364.91
357.715
354.901
354.359
355.192
355.145
354.302
353.177
352.785
352.783
352.902
352.847
352.602
352.221
351.947
351.733
351.526
351.306
351.107
350.973
350.94
351.008
351.097
351.076
351
350.878
350.727
350.557
350.389
350.235
350.102
349.986
349.872
349.746
349.611
349.496
349.43
349.388
349.372
349.389
349.451
349.54
349.598
349.593
349.546
349.474
349.381
349.261
349.103
348.911
348.701
348.49
348.282
348.087
347.954
347.905
347.903
347.936
348.035
348.203
348.411
348.583
348.656
348.663
348.635
348.559
348.432
348.236
347.976
347.692
347.441
347.245
347.093
346.997
346.96
346.967
347.025
347.167
347.408
347.725
348.099
348.472
348.726
348.805
348.807
348.758
348.649
348.456
348.17
347.849
347.582
347.392
347.236
347.12
347.075
347.132
347.324
347.67
348.09
348.368
348.424
348.406
348.335
348.16
347.806
347.249
346.602
346.083
345.754
345.506
345.289
345.14
345.104
345.235
345.595
346.135
346.682
347.028
347.149
347.192
347.134
346.975
346.714
346.389
346.09
345.881
345.747
345.673
345.653
345.704
345.876
346.209
346.685
347.234
347.815
348.416
349.039
349.685
350.356
351.051
351.771
352.519
353.319
354.227
355.35
356.808
358.392
359.221
359.276
359.111
358.243
355.447
349.356
342.293
339.378
339.099
339.092
339.095
339.116
339.152
339.188
339.215
339.232
339.246
339.262
339.279
339.3
339.323
339.346
339.369
339.391
339.412
339.434
339.457
339.48
339.503
339.527
339.552
339.572
339.613
4187.64
2133.75
2693.81
3150.69
3265.51
3272.85
3296.12
3307.12
3305.27
3314.91
3185.38
2863.47
2780.55
2808.57
2867.59
2944.32
3025.46
3106.68
3188.85
3274.18
3365.36
3464.81
3569.27
3654.08
3702.38
3730.75
3716.72
3506.64
3249.15
3244.64
3283.24
3345.48
3411.6
3470.32
3523.54
3575.72
3629.2
3684.17
3739.93
3797.26
3861.81
3946.71
4043.07
4088.43
4100.97
4017.06
3760.03
3669.51
3679.01
3706.34
3743.18
3769.13
3777.77
3776.25
3769.07
3757.02
3740.55
3720.14
3698.87
3683.35
3682.49
3700.96
3672.87
3589.67
3415.54
3219.58
3158.26
3134.13
3127.94
3125.95
3113.16
3089
3061.03
3032.81
3005.49
2981.38
2966.47
2967.65
2967.17
2919.05
2826.37
2679.98
2578.57
2543.69
2521.06
2510.82
2495.61
2465.06
2423.12
2376.65
2329.43
2286.06
2251.14
2213.94
2138.59
2034.51
1903.38
1798.24
1726.36
1662.96
1601.88
1530.07
1449.44
1369.46
1296.03
1218.95
1124.39
1021.2
922.116
847.32
783.254
724.98
666.914
603.356
533.426
472.112
427.294
399.002
385.365
375.067
366.014
358.306
355.049
354.345
355.136
355.177
354.373
353.192
352.724
352.703
352.828
352.793
352.573
352.21
351.939
351.734
351.539
351.321
351.116
350.972
350.916
350.956
351.022
350.995
350.916
350.792
350.644
350.486
350.338
350.213
350.113
350.024
349.929
349.818
349.688
349.56
349.474
349.425
349.397
349.4
349.445
349.517
349.552
349.533
349.479
349.405
349.317
349.209
349.075
348.923
348.768
348.626
348.487
348.335
348.181
348.083
348.059
348.069
348.124
348.236
348.383
348.497
348.539
348.537
348.498
348.417
348.289
348.108
347.892
347.693
347.55
347.433
347.312
347.2
347.137
347.129
347.165
347.27
347.453
347.704
347.996
348.298
348.538
348.642
348.655
348.621
348.528
348.366
348.138
347.918
347.813
347.775
347.742
347.702
347.673
347.701
347.83
348.064
348.321
348.466
348.49
348.457
348.37
348.155
347.728
347.07
346.306
345.637
345.163
344.834
344.597
344.464
344.444
344.563
344.885
345.402
346.019
346.585
346.958
347.112
347.158
347.115
346.993
346.793
346.561
346.376
346.253
346.176
346.138
346.15
346.239
346.45
346.804
347.287
347.849
348.448
349.073
349.722
350.4
351.104
351.83
352.579
353.371
354.26
355.351
356.759
358.275
359.05
359.097
358.928
358.07
355.334
349.367
342.362
339.396
339.101
339.093
339.096
339.116
339.151
339.188
339.214
339.232
339.247
339.262
339.28
339.3
339.323
339.346
339.369
339.391
339.413
339.434
339.457
339.48
339.503
339.527
339.552
339.572
339.613
4186.58
2070.4
2682.9
3152.04
3263.06
3270.62
3294.05
3305.33
3304.43
3314.59
3189.68
2868.81
2779.44
2806.35
2864.12
2940.34
3021.25
3102.2
3184.06
3269.42
3361.44
3462.17
3567.46
3652.66
3701.74
3730.01
3717.38
3510.51
3249.04
3242.62
3280.55
3342.33
3408.37
3467.15
3520.29
3572.2
3625.24
3679.65
3734.74
3791.4
3855.4
3939.91
4037.01
4083.89
4097.26
4017.45
3762.7
3668.53
3678.14
3705.73
3743.01
3769.46
3778.31
3776.74
3769.54
3757.45
3740.87
3720.25
3698.47
3682.29
3680.91
3699.34
3672.1
3589.29
3416.17
3218.17
3154.43
3129.14
3121.54
3118.11
3103.68
3077.75
3047.77
3017.5
2988.22
2962.28
2945.82
2945.61
2944.11
2893.87
2798.48
2650.42
2550.75
2516.56
2494.91
2485.78
2471.84
2443.5
2405.1
2363.08
2320.76
2282.75
2252.81
2218.23
2142.91
2036.69
1903.98
1800.86
1730.12
1667.82
1606.64
1534.06
1452.55
1371.69
1297.65
1220.79
1126.1
1023.24
924.009
849.524
785.726
727.719
669.886
606.565
536.375
474.515
429.091
400.297
386.296
375.853
366.558
358.56
355.074
354.305
355.085
355.178
354.401
353.179
352.655
352.626
352.76
352.746
352.55
352.207
351.95
351.757
351.575
351.356
351.138
350.981
350.904
350.918
350.954
350.914
350.826
350.698
350.55
350.407
350.288
350.196
350.127
350.057
349.978
349.88
349.759
349.624
349.515
349.456
349.417
349.408
349.435
349.485
349.498
349.466
349.405
349.329
349.241
349.142
349.035
348.929
348.834
348.749
348.664
348.561
348.43
348.292
348.211
348.197
348.212
348.265
348.346
348.402
348.414
348.398
348.346
348.26
348.134
347.975
347.82
347.728
347.68
347.628
347.555
347.458
347.373
347.335
347.349
347.416
347.545
347.731
347.946
348.173
348.372
348.484
348.512
348.495
348.422
348.294
348.135
348.054
348.065
348.115
348.179
348.222
348.238
348.24
348.267
348.343
348.429
348.499
348.509
348.465
348.351
348.08
347.57
346.823
345.975
345.212
344.659
344.317
344.131
344.051
344.049
344.149
344.413
344.843
345.384
345.965
346.499
346.887
347.08
347.125
347.091
346.988
346.847
346.731
346.659
346.624
346.617
346.637
346.71
346.865
347.124
347.497
347.974
348.529
349.132
349.771
350.445
351.151
351.882
352.633
353.419
354.289
355.344
356.694
358.134
358.855
358.895
358.721
357.876
355.21
349.387
342.449
339.419
339.102
339.094
339.096
339.115
339.15
339.187
339.214
339.232
339.247
339.262
339.28
339.301
339.323
339.346
339.369
339.391
339.413
339.434
339.457
339.48
339.503
339.527
339.552
339.572
339.613
4185.03
1925.29
2670.18
3150.65
3260.89
3268.4
3291.69
3303.11
3302.43
3312.8
3191.48
2871.29
2775.96
2801.84
2858.68
2934.28
3014.91
3095.85
3178.08
3264.37
3357.95
3460.55
3566.61
3652.02
3701.95
3730.27
3718.49
3511.77
3247.88
3240.74
3278.3
3339.79
3405.81
3464.78
3518.05
3569.87
3622.52
3676.26
3730.52
3786.29
3849.43
3933.28
4030.8
4078.84
4092.85
4016.59
3764.43
3667.21
3677.16
3705.43
3743.82
3771.7
3781.41
3780.3
3773.38
3761.27
3744.57
3723.84
3701.8
3685.1
3682.67
3699.95
3673.65
3591.54
3420.14
3220.09
3153.79
3127.88
3119.65
3115.82
3100.97
3074.27
3043.18
3011.57
2980.76
2952.97
2934.65
2933.09
2930.57
2878.77
2782.15
2633.1
2531.98
2496.69
2474.18
2464.31
2449.5
2421.29
2384.76
2345.85
2307.96
2275.23
2250.83
2217.87
2143.27
2034.39
1900.86
1800.23
1730.48
1669.13
1607.98
1535.25
1453.81
1373.13
1298.99
1221.92
1126.77
1023.58
923.925
849.191
785.247
727.3
669.529
606.193
536.178
474.534
429.288
400.534
386.517
375.936
366.56
358.548
355.077
354.3
355.078
355.146
354.337
353.101
352.59
352.564
352.71
352.708
352.529
352.209
351.978
351.799
351.63
351.408
351.174
351.001
350.901
350.892
350.893
350.837
350.736
350.6
350.453
350.331
350.25
350.192
350.138
350.086
350.02
349.935
349.825
349.693
349.565
349.485
349.441
349.418
349.428
349.452
349.444
349.399
349.331
349.247
349.151
349.055
348.98
348.933
348.9
348.863
348.816
348.75
348.656
348.529
348.392
348.307
348.282
348.278
348.292
348.302
348.292
348.254
348.188
348.093
347.972
347.863
347.816
347.803
347.813
347.825
347.811
347.756
347.673
347.599
347.574
347.599
347.672
347.788
347.932
348.093
348.248
348.348
348.382
348.378
348.336
348.266
348.222
348.243
348.312
348.433
348.56
348.651
348.692
348.676
348.58
348.472
348.45
348.445
348.43
348.36
348.191
347.848
347.277
346.502
345.642
344.871
344.33
344.024
343.881
343.835
343.833
343.906
344.111
344.45
344.887
345.384
345.907
346.404
346.794
347.009
347.06
347.037
346.987
346.952
346.95
346.973
347.023
347.096
347.203
347.359
347.578
347.874
348.254
348.716
349.253
349.854
350.508
351.204
351.931
352.68
353.458
354.306
355.321
356.608
357.969
358.638
358.67
358.493
357.663
355.077
349.417
342.554
339.447
339.104
339.095
339.097
339.115
339.149
339.186
339.214
339.233
339.247
339.263
339.28
339.301
339.323
339.346
339.369
339.391
339.413
339.435
339.457
339.48
339.503
339.527
339.552
339.572
339.613
4183.47
2789.26
2657.36
3146.69
3259.07
3266.78
3289.44
3300.5
3299.42
3310.01
3192.17
2872.37
2771.03
2796.23
2852.3
2927.6
3008.34
3089.68
3172.49
3259.55
3354.31
3458.74
3566.34
3651.98
3702.04
3730.27
3718.03
3509.71
3244.84
3237.69
3275
3336.22
3402.23
3461.43
3514.98
3566.99
3619.66
3673.2
3727.06
3782.32
3844.85
3927.92
4024.87
4073.33
4087.8
4014.52
3765.15
3665.55
3675.97
3705.04
3744.95
3775.23
3787.05
3787.31
3781.74
3770.39
3754.02
3733.36
3711.12
3693.84
3689.98
3705.79
3680.33
3598.83
3429.25
3226.16
3156.02
3129.02
3119.75
3115.81
3101.16
3074.4
3042.9
3010.54
2978.62
2949.25
2929.18
2926.23
2924.12
2871.87
2776.16
2626.58
2521.45
2484.14
2459.78
2447.47
2430.43
2401.26
2365.12
2327.75
2292.3
2263.29
2243.5
2211.38
2137.32
2026.57
1893.93
1797.13
1728.67
1668.03
1606.87
1534.26
1453.36
1373.3
1299.62
1221.94
1125.69
1021.1
920.811
845.298
780.862
722.681
665.054
601.761
532.649
472.138
428.002
399.933
386.192
375.51
366.209
358.367
355.081
354.352
355.104
355.06
354.185
352.973
352.524
352.513
352.679
352.678
352.505
352.21
352.013
351.848
351.69
351.468
351.222
351.027
350.91
350.868
350.83
350.759
350.644
350.499
350.363
350.276
350.224
350.18
350.15
350.119
350.064
349.989
349.89
349.769
349.633
349.527
349.472
349.437
349.427
349.42
349.389
349.332
349.253
349.152
349.04
348.958
348.927
348.925
348.947
348.964
348.951
348.911
348.842
348.742
348.603
348.439
348.315
348.264
348.232
348.205
348.169
348.112
348.031
347.931
347.851
347.824
347.83
347.873
347.959
348.043
348.077
348.07
348.019
347.931
347.844
347.809
347.823
347.87
347.949
348.055
348.165
348.233
348.259
348.266
348.277
348.301
348.344
348.431
348.568
348.736
348.886
348.975
348.998
348.943
348.779
348.535
348.374
348.304
348.238
348.117
347.882
347.48
346.892
346.167
345.424
344.792
344.313
343.988
343.808
343.745
343.727
343.767
343.911
344.168
344.51
344.91
345.354
345.83
346.294
346.664
346.893
346.994
347.021
347.056
347.119
347.213
347.337
347.489
347.665
347.864
348.091
348.354
348.666
349.04
349.487
350.013
350.617
351.283
351.993
352.727
353.487
354.306
355.273
356.492
357.777
358.401
358.427
358.246
357.434
354.937
349.458
342.678
339.481
339.107
339.097
339.098
339.115
339.148
339.184
339.213
339.233
339.248
339.263
339.28
339.301
339.323
339.346
339.369
339.391
339.413
339.435
339.457
339.48
339.503
339.527
339.552
339.572
339.613
4181.98
2644.03
2649.3
3138.07
3257.47
3265.91
3288.38
3299.36
3297.8
3308.5
3192.83
2871.84
2765.87
2790.73
2846.61
2922.06
3003.12
3084.82
3168.05
3255.7
3351.57
3457.97
3567.17
3652
3700.49
3728.07
3714.96
3505.4
3240.61
3233.5
3270.65
3331.5
3397.38
3456.67
3510.39
3562.59
3615.48
3669.27
3723.36
3778.74
3841.14
3923.73
4019.51
4067.52
4082.3
4011.45
3764.93
3663.41
3674.33
3704.25
3745.82
3779.28
3794.51
3797.22
3793.65
3784.57
3769.85
3750.06
3728.07
3710.46
3705.64
3719.86
3694.68
3613.75
3446.45
3239.84
3164.09
3135.25
3123.93
3119.12
3104.37
3077.5
3045.55
3012.71
2980.02
2949.24
2927.34
2922.11
2920.97
2869.75
2775.96
2626.73
2516.66
2476.59
2449.78
2434.88
2416
2385.77
2348.65
2310.39
2274.89
2246.71
2228.34
2194.85
2121.54
2010.93
1880.69
1788.24
1721.81
1662.84
1602.43
1530.56
1450.69
1371.57
1298.3
1219.29
1120.87
1013.15
911.416
834.094
768.337
709.321
651.751
588.494
521.641
463.994
423.043
397.314
384.814
374.333
365.334
357.852
354.952
354.357
355.091
354.897
353.941
352.785
352.437
352.457
352.649
352.635
352.46
352.202
352.04
351.895
351.749
351.524
351.269
351.047
350.919
350.839
350.769
350.678
350.547
350.399
350.289
350.234
350.195
350.172
350.164
350.156
350.118
350.05
349.961
349.853
349.725
349.601
349.515
349.468
349.429
349.391
349.34
349.267
349.17
349.045
348.932
348.879
348.87
348.894
348.97
349.053
349.074
349.055
348.999
348.911
348.775
348.586
348.38
348.239
348.165
348.111
348.051
347.973
347.883
347.813
347.791
347.803
347.856
347.963
348.119
348.275
348.362
348.384
348.369
348.3
348.182
348.049
347.978
347.974
347.992
348.044
348.102
348.137
348.161
348.196
348.257
348.347
348.472
348.633
348.826
349.019
349.155
349.205
349.185
349.08
348.857
348.527
348.212
348.029
347.896
347.722
347.444
347.031
346.498
345.929
345.414
344.961
344.533
344.135
343.846
343.717
343.68
343.69
343.777
343.961
344.218
344.527
344.888
345.301
345.747
346.174
346.522
346.777
346.956
347.085
347.21
347.367
347.56
347.79
348.049
348.322
348.596
348.869
349.154
349.471
349.841
350.283
350.81
351.418
352.086
352.786
353.508
354.284
355.194
356.342
357.556
358.145
358.166
357.982
357.193
354.794
349.51
342.822
339.523
339.11
339.098
339.099
339.114
339.147
339.183
339.213
339.233
339.248
339.263
339.281
339.301
339.323
339.346
339.369
339.391
339.413
339.435
339.457
339.48
339.503
339.527
339.552
339.572
339.613
4180.65
1912.94
2644.1
3123.19
3256.96
3266.93
3289.28
3300.1
3298.37
3310.2
3195.04
2869.66
2761.15
2786.48
2843.08
2919.11
3000.46
3082.44
3166.05
3254.3
3351.09
3458.29
3566.97
3649.51
3696.47
3723.51
3709.85
3500.64
3236.38
3228.84
3265.54
3325.96
3391.65
3450.99
3504.79
3557.06
3610.07
3664.14
3718.72
3774.61
3837.35
3919.93
4014.56
4061.83
4076.77
4008.11
3764.21
3660.7
3672.07
3702.86
3746.06
3782.74
3802.24
3808.37
3807.46
3801.9
3790.4
3772.92
3752.31
3735.24
3730.07
3743.01
3718.16
3638.18
3473.93
3263.46
3180.64
3149.5
3135.52
3129.24
3113.91
3086.57
3053.89
3020.13
2986.44
2954.21
2930.15
2921.41
2919.66
2870.05
2778.27
2630.57
2515.43
2472.66
2443.3
2426.38
2406.33
2374.62
2335.16