/*--------------------------------*- C++ -*----------------------------------*\
| =========                 |                                                 |
| \\      /  F ield         | OpenFOAM: The Open Source CFD Toolbox           |
|  \\    /   O peration     | Version:  2306                                  |
|   \\  /    A nd           | Website:  www.openfoam.com                      |
|    \\/     M anipulation  |                                                 |
\*---------------------------------------------------------------------------*/
FoamFile
{
    version     2.0;
    format      ascii;
    arch        "LSB;label=32;scalar=64";
    class       volVectorField;
    location    "0.06";
    object      U;
}
// * * * * * * * * * * * * * * * * * * * * * * * * * * * * * * * * * * * * * //

dimensions      [0 1 -1 0 0 0 0];

internalField   nonuniform List<vector> 
6000
(
(-2494.98 0.421104 0)
(-332.594 -0.973358 0)
(72.3065 0.0395368 0)
(296.939 -0.408207 0)
(343.553 -0.219031 0)
(353.721 -0.303725 0)
(341.432 0.0963739 0)
(326.009 0.528338 0)
(325.917 1.15693 0)
(286.248 1.16588 0)
(98.3254 1.28101 0)
(-200.518 1.26821 0)
(-240.716 1.11384 0)
(-223.359 1.04166 0)
(-176.963 1.03255 0)
(-118.909 0.968996 0)
(-60.6768 0.827117 0)
(-3.912 0.534997 0)
(53.074 0.155374 0)
(112.915 -0.320496 0)
(178.61 -0.916884 0)
(250.054 -1.52513 0)
(313.371 -2.26035 0)
(347.958 -2.93523 0)
(360.403 -2.96845 0)
(356.47 -2.56286 0)
(289.859 -1.16939 0)
(27.9844 -0.173753 0)
(-139.162 0.530275 0)
(-140.788 0.817156 0)
(-118.488 1.01528 0)
(-78.4186 1.19401 0)
(-39.4441 1.36701 0)
(-7.65781 1.45636 0)
(20.032 1.49858 0)
(46.8559 1.53295 0)
(74.2305 1.59312 0)
(102.259 1.59423 0)
(130.563 1.5536 0)
(160.079 1.45786 0)
(196.374 1.29182 0)
(249.095 1.09741 0)
(305.381 0.948196 0)
(322.401 0.83828 0)
(311.87 0.730405 0)
(215.814 0.607155 0)
(-2.05027 0.812746 0)
(-65.2426 0.775749 0)
(-61.0179 0.698997 0)
(-39.2356 0.596253 0)
(-4.70549 0.468799 0)
(25.456 0.337863 0)
(46.8932 0.193589 0)
(63.8332 0.031763 0)
(80.5955 -0.148343 0)
(98.3788 -0.290216 0)
(116.546 -0.391067 0)
(134.354 -0.435556 0)
(152.593 -0.46346 0)
(177.477 -0.54648 0)
(216.909 -0.690698 0)
(261.085 -0.84659 0)
(277.939 -1.09118 0)
(256.562 -1.16586 0)
(156.015 -1.11906 0)
(21.4042 -1.10363 0)
(-2.4848 -1.16504 0)
(4.21914 -1.18238 0)
(29.7655 -1.16321 0)
(59.7908 -1.11446 0)
(83.0998 -1.0335 0)
(97.7901 -0.830926 0)
(107.704 -0.467633 0)
(116.61 0.0118684 0)
(126.174 0.501972 0)
(138.01 0.886589 0)
(156.263 1.09813 0)
(187.827 1.12904 0)
(221.536 1.10569 0)
(234.337 1.00588 0)
(210.721 0.674069 0)
(133.777 0.126612 0)
(49.8165 0.000845943 0)
(30.0519 0.280977 0)
(36.9592 0.506215 0)
(59.3767 0.673232 0)
(85.3266 0.784393 0)
(103.751 0.868407 0)
(113.939 0.876448 0)
(120.659 0.741879 0)
(128.489 0.510513 0)
(142.42 0.169884 0)
(169.022 -0.199189 0)
(196.079 -0.482336 0)
(201.499 -0.717235 0)
(171.014 -0.829628 0)
(108.728 -0.853825 0)
(67.7094 -0.825932 0)
(59.8425 -0.704315 0)
(75.5198 -0.580953 0)
(101.191 -0.52135 0)
(122.505 -0.52356 0)
(137.09 -0.512604 0)
(151.79 -0.440095 0)
(170.243 -0.293468 0)
(178.495 0.0180963 0)
(162.993 0.287328 0)
(124.949 0.592622 0)
(90.1732 0.743985 0)
(84.7523 0.716275 0)
(99.426 0.616691 0)
(127.4 0.53634 0)
(150.092 0.308792 0)
(146.99 0.110648 0)
(128.755 -0.0163206 0)
(113.104 -0.233793 0)
(112.833 -0.359942 0)
(126.244 -0.521685 0)
(135.654 -0.536816 0)
(132.574 -0.422615 0)
(125.76 -0.303563 0)
(122.56 -0.264199 0)
(124.414 -0.271867 0)
(129.695 -0.281301 0)
(132.128 -0.247063 0)
(131.563 -0.191114 0)
(129.592 -0.129353 0)
(128.836 -0.105285 0)
(129.201 -0.0996815 0)
(130.125 -0.0962883 0)
(130.382 -0.0891939 0)
(130.139 -0.07936 0)
(129.347 -0.0631451 0)
(128.784 -0.0501582 0)
(128.66 -0.0422047 0)
(128.644 -0.0335112 0)
(128.633 -0.0244915 0)
(128.593 -0.0229016 0)
(128.605 -0.0223994 0)
(128.879 -0.0239682 0)
(129.516 -0.0296579 0)
(130.318 -0.0376855 0)
(130.675 -0.0459824 0)
(130.675 -0.0515765 0)
(130.559 -0.0579292 0)
(130.313 -0.0637965 0)
(129.977 -0.0682461 0)
(129.603 -0.070883 0)
(129.199 -0.0699325 0)
(128.756 -0.0641201 0)
(128.298 -0.0534033 0)
(127.875 -0.038475 0)
(127.526 -0.0217227 0)
(127.273 -0.00469123 0)
(127.131 0.0119801 0)
(127.065 0.0258811 0)
(127.05 0.0352334 0)
(127.107 0.042323 0)
(127.282 0.0439357 0)
(127.622 0.0407482 0)
(128.154 0.033645 0)
(128.817 0.0192164 0)
(129.405 -0.00654358 0)
(129.701 -0.0355781 0)
(129.776 -0.0544808 0)
(129.753 -0.0643353 0)
(129.662 -0.0749493 0)
(129.39 -0.0814047 0)
(128.786 -0.07712 0)
(127.73 -0.045613 0)
(126.324 0.00354695 0)
(125.108 0.0510872 0)
(124.56 0.0805365 0)
(124.445 0.0955021 0)
(124.416 0.101518 0)
(124.449 0.105023 0)
(124.603 0.109057 0)
(124.99 0.111645 0)
(125.702 0.109719 0)
(126.729 0.10251 0)
(127.869 0.0912176 0)
(128.747 0.0802481 0)
(129.131 0.0684131 0)
(129.202 0.0562269 0)
(129.195 0.0462177 0)
(129.142 0.030245 0)
(128.97 0.0121757 0)
(128.507 0.00277849 0)
(127.538 0.00811353 0)
(126.02 0.0224732 0)
(124.457 0.0433184 0)
(123.637 0.067553 0)
(123.472 0.089373 0)
(123.444 0.105447 0)
(123.466 0.121427 0)
(123.618 0.134529 0)
(124.071 0.132559 0)
(125.033 0.0987403 0)
(126.648 0.0296481 0)
(128.758 -0.0635421 0)
(130.695 -0.148607 0)
(131.768 -0.212313 0)
(132.136 -0.259556 0)
(132.255 -0.294566 0)
(132.303 -0.325419 0)
(132.241 -0.359323 0)
(131.863 -0.39006 0)
(130.798 -0.389618 0)
(128.645 -0.318146 0)
(125.468 -0.166651 0)
(122.562 0.0149261 0)
(121.285 0.168793 0)
(121.076 0.275463 0)
(121.051 0.357028 0)
(121.103 0.427096 0)
(121.379 0.485626 0)
(122.101 0.522992 0)
(123.431 0.548569 0)
(125.11 0.579783 0)
(126.068 0.621959 0)
(126.122 0.660235 0)
(125.911 0.707436 0)
(125.473 0.76161 0)
(124.844 0.807885 0)
(124.418 0.835036 0)
(124.229 0.830446 0)
(124.343 0.799127 0)
(124.966 0.689412 0)
(126.29 0.471236 0)
(128.253 0.138275 0)
(130.503 -0.280205 0)
(132.448 -0.654778 0)
(133.671 -0.9429 0)
(134.202 -1.12987 0)
(134.365 -1.23344 0)
(133.787 -1.34301 0)
(131.62 -1.43253 0)
(127.398 -1.38853 0)
(122.287 -1.05043 0)
(118.755 -0.59042 0)
(117.434 -0.267839 0)
(117.148 -0.107927 0)
(117.141 -0.0199093 0)
(117.212 0.0574305 0)
(117.431 0.11691 0)
(117.949 0.148642 0)
(118.858 0.165487 0)
(120.128 0.167396 0)
(121.63 0.139917 0)
(123.17 0.0955615 0)
(124.592 0.0569243 0)
(125.856 0.0354682 0)
(127.016 0.0308911 0)
(128.161 0.0352516 0)
(129.362 0.0542336 0)
(130.655 0.0803144 0)
(132.078 0.0993059 0)
(133.651 0.108265 0)
(135.367 0.109287 0)
(137.209 0.11037 0)
(139.163 0.112219 0)
(141.231 0.113922 0)
(143.47 0.113998 0)
(146.033 0.110955 0)
(149.221 0.105483 0)
(153.392 0.0948595 0)
(158.098 0.0806783 0)
(160.81 0.0628192 0)
(161.044 0.0456561 0)
(160.64 0.027269 0)
(158.313 0.00734887 0)
(150.506 -0.00177099 0)
(133.34 -0.00176721 0)
(113.983 -0.00123135 0)
(106.563 -0.000168017 0)
(105.941 4.99113e-05 0)
(105.945 6.20314e-05 0)
(105.982 9.15045e-05 0)
(106.07 0.000117113 0)
(106.194 9.67061e-05 0)
(106.314 4.99185e-05 0)
(106.402 -1.06405e-05 0)
(106.468 -2.29077e-05 0)
(106.526 -2.42324e-05 0)
(106.588 -1.04666e-05 0)
(106.658 2.86728e-05 0)
(106.736 3.29477e-05 0)
(106.818 8.6697e-05 0)
(106.899 7.95299e-05 0)
(106.979 9.14617e-05 0)
(107.057 5.65627e-05 0)
(107.134 2.13237e-06 0)
(107.212 1.61636e-05 0)
(107.292 3.1401e-05 0)
(107.372 1.8154e-05 0)
(107.455 6.52087e-05 0)
(107.537 3.98784e-05 0)
(107.623 6.71479e-05 0)
(107.699 6.26496e-05 0)
(107.831 6.2299e-05 0)
(-2495 0.881215 0)
(-328.426 14.9084 0)
(72.0507 1.47678 0)
(297.122 0.0651263 0)
(343.518 -0.139258 0)
(353.453 -0.392283 0)
(341.155 0.000219092 0)
(325.851 0.481617 0)
(325.863 0.90004 0)
(286.729 1.21439 0)
(100.117 1.67805 0)
(-198.817 3.00232 0)
(-239.72 3.45768 0)
(-222.724 3.44548 0)
(-176.8 3.31467 0)
(-119.188 3.12837 0)
(-61.4509 3.12342 0)
(-5.17428 3.1938 0)
(51.4192 3.17233 0)
(110.868 2.92554 0)
(175.737 1.97316 0)
(245.989 -0.449664 0)
(309.523 -4.20172 0)
(346.749 -7.50015 0)
(359.724 -9.43276 0)
(356.456 -11.1377 0)
(293.061 -11.8963 0)
(35.0873 -6.33261 0)
(-137.54 -1.628 0)
(-139.958 -0.759155 0)
(-117.844 -0.248606 0)
(-77.7011 0.150259 0)
(-38.4821 0.625071 0)
(-6.51912 1.16225 0)
(21.176 1.76289 0)
(47.8814 2.33724 0)
(75.1422 2.94308 0)
(103.036 3.46116 0)
(131.122 3.92019 0)
(160.366 4.27081 0)
(196.401 4.37975 0)
(248.911 4.20039 0)
(305.107 3.60647 0)
(322.107 2.99589 0)
(311.617 2.47341 0)
(216.235 2.35996 0)
(-1.34591 2.78459 0)
(-65.1668 2.89413 0)
(-60.9997 2.78405 0)
(-39.3435 2.56732 0)
(-4.87503 2.218 0)
(25.2879 1.80269 0)
(46.7244 1.31876 0)
(63.6681 0.83756 0)
(80.4333 0.482479 0)
(98.2093 0.207831 0)
(116.285 0.0108085 0)
(133.804 -0.234323 0)
(151.765 -0.555886 0)
(176.553 -0.94658 0)
(216.175 -1.29579 0)
(260.69 -1.38677 0)
(277.667 -1.27612 0)
(256.226 -1.19555 0)
(155.416 -1.42057 0)
(20.6156 -1.98412 0)
(-3.22259 -2.46828 0)
(3.61322 -2.8277 0)
(29.28 -3.03 0)
(59.302 -3.06519 0)
(82.5864 -3.13527 0)
(97.5081 -3.12069 0)
(107.899 -2.74165 0)
(117.363 -2.06308 0)
(127.378 -1.04293 0)
(139.384 0.284753 0)
(157.429 1.58533 0)
(188.882 2.70585 0)
(222.242 3.76568 0)
(233.745 3.80903 0)
(209.564 3.2293 0)
(131.368 1.6423 0)
(49.1645 -0.118805 0)
(30.246 -0.261707 0)
(37.7048 0.139153 0)
(60.3487 0.989159 0)
(86.1885 1.7936 0)
(104.374 2.30995 0)
(114.342 2.60809 0)
(120.817 2.61936 0)
(128.362 2.36831 0)
(142.01 1.89371 0)
(168.246 1.2104 0)
(195.239 0.0571374 0)
(200.869 -1.20335 0)
(170.715 -2.17841 0)
(109.175 -2.67043 0)
(68.4721 -2.44916 0)
(60.4542 -2.16427 0)
(75.8738 -1.83503 0)
(101.09 -1.4373 0)
(121.937 -1.1208 0)
(136.168 -1.14945 0)
(150.753 -1.24012 0)
(169.556 -1.09574 0)
(178.28 -0.335892 0)
(163.099 0.555431 0)
(124.973 1.6497 0)
(89.8669 2.4512 0)
(84.1774 2.62604 0)
(98.5523 2.37663 0)
(126.226 1.37021 0)
(149.689 -0.0186309 0)
(147.624 -0.369712 0)
(129.434 -0.249657 0)
(113.144 -0.279226 0)
(112.273 -0.723186 0)
(125.836 -1.5609 0)
(136.295 -1.69584 0)
(133.481 -1.26328 0)
(126.358 -0.478657 0)
(122.518 -0.198067 0)
(124.062 -0.292171 0)
(129.349 -0.633069 0)
(132.219 -0.715754 0)
(131.78 -0.576552 0)
(129.798 -0.294905 0)
(128.805 -0.129999 0)
(129.096 -0.110881 0)
(129.988 -0.174378 0)
(130.306 -0.220761 0)
(130.109 -0.225447 0)
(129.369 -0.18755 0)
(128.783 -0.134784 0)
(128.645 -0.105895 0)
(128.628 -0.0838849 0)
(128.623 -0.0582816 0)
(128.587 -0.0364879 0)
(128.597 -0.0220828 0)
(128.857 -0.0102867 0)
(129.467 -0.0209657 0)
(130.258 -0.0590127 0)
(130.631 -0.0983558 0)
(130.638 -0.121654 0)
(130.525 -0.146469 0)
(130.283 -0.170374 0)
(129.947 -0.190489 0)
(129.572 -0.208172 0)
(129.169 -0.223433 0)
(128.732 -0.23152 0)
(128.289 -0.22478 0)
(127.886 -0.19862 0)
(127.553 -0.158143 0)
(127.305 -0.11536 0)
(127.165 -0.0783944 0)
(127.105 -0.0465018 0)
(127.096 -0.0199665 0)
(127.158 0.015253 0)
(127.334 0.0516162 0)
(127.665 0.082368 0)
(128.179 0.0999833 0)
(128.81 0.0954927 0)
(129.36 0.0622694 0)
(129.632 0.00693071 0)
(129.695 -0.0554286 0)
(129.662 -0.111256 0)
(129.562 -0.179386 0)
(129.298 -0.244659 0)
(128.729 -0.292317 0)
(127.742 -0.304951 0)
(126.425 -0.231504 0)
(125.229 -0.104251 0)
(124.645 0.000567769 0)
(124.526 0.06725 0)
(124.512 0.116321 0)
(124.555 0.172785 0)
(124.705 0.236264 0)
(125.067 0.293595 0)
(125.742 0.330989 0)
(126.733 0.336592 0)
(127.859 0.315428 0)
(128.741 0.277844 0)
(129.125 0.236012 0)
(129.196 0.196301 0)
(129.187 0.164653 0)
(129.126 0.122189 0)
(128.936 0.0715532 0)
(128.46 0.0218524 0)
(127.515 -0.0107524 0)
(126.055 0.00105757 0)
(124.526 0.0647993 0)
(123.696 0.143715 0)
(123.527 0.212314 0)
(123.511 0.267524 0)
(123.551 0.328656 0)
(123.712 0.395384 0)
(124.148 0.460367 0)
(125.051 0.500329 0)
(126.555 0.457077 0)
(128.558 0.314019 0)
(130.474 0.11646 0)
(131.566 -0.0630144 0)
(131.897 -0.227418 0)
(131.97 -0.39268 0)
(131.995 -0.574876 0)
(131.896 -0.776134 0)
(131.505 -1.01138 0)
(130.493 -1.23646 0)
(128.518 -1.35387 0)
(125.672 -1.19296 0)
(122.936 -0.753706 0)
(121.537 -0.321336 0)
(121.247 -0.0523174 0)
(121.259 0.115614 0)
(121.356 0.265262 0)
(121.688 0.411809 0)
(122.472 0.554543 0)
(123.851 0.681122 0)
(125.562 0.760255 0)
(126.626 0.83475 0)
(126.77 0.988766 0)
(126.584 1.21119 0)
(126.187 1.53003 0)
(125.544 1.89776 0)
(125.038 2.24414 0)
(124.793 2.44993 0)
(124.853 2.57638 0)
(125.33 2.64876 0)
(126.317 2.48227 0)
(127.852 2.01679 0)
(129.797 1.349 0)
(131.642 0.585884 0)
(132.763 -0.186891 0)
(133.121 -0.966136 0)
(133.098 -1.79708 0)
(132.37 -2.74878 0)
(130.392 -3.77973 0)
(126.979 -4.48062 0)
(123.114 -4.24554 0)
(120.135 -3.06648 0)
(118.368 -1.82361 0)
(117.584 -1.01948 0)
(117.402 -0.588731 0)
(117.489 -0.306896 0)
(117.694 -0.0362309 0)
(118.153 0.205707 0)
(118.979 0.391548 0)
(120.153 0.49807 0)
(121.536 0.506093 0)
(122.984 0.415011 0)
(124.384 0.271119 0)
(125.695 0.134635 0)
(126.935 0.0487231 0)
(128.148 0.0208901 0)
(129.387 0.0175888 0)
(130.711 0.0343551 0)
(132.155 0.0747167 0)
(133.735 0.123232 0)
(135.453 0.171633 0)
(137.293 0.216302 0)
(139.239 0.25526 0)
(141.296 0.288683 0)
(143.519 0.314517 0)
(146.066 0.328349 0)
(149.239 0.331922 0)
(153.401 0.331009 0)
(158.092 0.317061 0)
(160.768 0.264151 0)
(160.99 0.199436 0)
(160.583 0.12781 0)
(158.257 0.048947 0)
(150.479 -0.0138793 0)
(133.362 -0.0389444 0)
(114.018 -0.0187458 0)
(106.569 -0.00203801 0)
(105.941 0.00016273 0)
(105.945 0.000497829 0)
(105.981 0.000811956 0)
(106.068 0.000818291 0)
(106.193 0.000449371 0)
(106.312 -3.01217e-05 0)
(106.401 -0.000301838 0)
(106.467 -0.000357303 0)
(106.526 -0.000303421 0)
(106.588 -0.000201121 0)
(106.657 -0.000135619 0)
(106.735 -8.41151e-05 0)
(106.817 -6.10533e-05 0)
(106.899 -9.20423e-05 0)
(106.978 -8.73532e-05 0)
(107.056 -0.000108351 0)
(107.133 -0.00011645 0)
(107.211 -3.75071e-05 0)
(107.291 -2.19381e-05 0)
(107.372 3.58693e-05 0)
(107.454 8.00415e-05 0)
(107.536 5.00656e-05 0)
(107.622 0.000101436 0)
(107.698 8.39776e-05 0)
(107.83 9.3226e-05 0)
(-2496.25 1.27605 0)
(-597.998 19.5197 0)
(57.6686 2.64293 0)
(294.778 -0.783863 0)
(343.758 -1.27283 0)
(353.667 -1.78295 0)
(341.469 -1.37867 0)
(326.219 -1.56117 0)
(326.362 -1.55761 0)
(287.602 -1.67884 0)
(104.295 -0.0316783 0)
(-194.961 3.77107 0)
(-238.031 5.03416 0)
(-221.838 5.31267 0)
(-176.856 5.25963 0)
(-119.751 4.95866 0)
(-62.3061 4.82387 0)
(-6.30197 4.81408 0)
(49.9066 4.73447 0)
(108.734 4.05411 0)
(172.537 2.18484 0)
(241.225 -1.23307 0)
(304.684 -5.89768 0)
(344.526 -9.622 0)
(358.135 -11.9923 0)
(355.576 -13.8494 0)
(297.396 -13.9107 0)
(48.1808 -7.47092 0)
(-134.256 -1.19939 0)
(-138.498 0.139561 0)
(-117.094 0.916221 0)
(-77.066 1.47971 0)
(-37.6126 2.17919 0)
(-5.54131 2.90936 0)
(22.1486 3.55179 0)
(48.8624 4.1027 0)
(76.1496 4.65601 0)
(104.041 5.08743 0)
(132.014 5.47008 0)
(160.97 5.80971 0)
(196.452 5.92848 0)
(248.16 5.63053 0)
(303.97 4.81104 0)
(321.08 4.1216 0)
(310.764 3.65813 0)
(216.356 3.55212 0)
(-0.755236 4.13821 0)
(-65.3472 4.25665 0)
(-61.2568 4.13725 0)
(-39.797 3.87609 0)
(-5.41535 3.44726 0)
(24.7713 2.92733 0)
(46.2617 2.31011 0)
(63.2275 1.63774 0)
(80.1117 1.04984 0)
(97.9599 0.301203 0)
(116.132 -0.276396 0)
(133.605 -0.856525 0)
(151.33 -1.44078 0)
(175.892 -2.0355 0)
(215.579 -2.57998 0)
(260.401 -2.7539 0)
(277.696 -2.42153 0)
(256.072 -2.08562 0)
(154.557 -2.22366 0)
(19.7684 -2.94958 0)
(-3.87246 -3.58865 0)
(3.20028 -4.01343 0)
(29.1874 -4.2295 0)
(59.4587 -4.11161 0)
(82.9072 -3.8337 0)
(98.0545 -3.52395 0)
(108.742 -3.12496 0)
(118.538 -2.66691 0)
(128.874 -2.00002 0)
(141.281 -0.921874 0)
(159.807 0.60976 0)
(191.662 2.59367 0)
(224.431 4.7119 0)
(233.566 5.72459 0)
(208.159 5.39785 0)
(127.322 3.11354 0)
(48.1406 0.558394 0)
(30.8405 0.0949986 0)
(39.1509 0.237541 0)
(62.4463 1.08356 0)
(88.3319 2.28134 0)
(106.085 3.20957 0)
(115.57 3.67775 0)
(121.687 3.68698 0)
(128.853 3.3021 0)
(142.116 2.59112 0)
(167.903 1.62905 0)
(194.465 0.29941 0)
(200.032 -1.35122 0)
(170.044 -2.71962 0)
(109.24 -3.67752 0)
(69.1041 -3.81881 0)
(61.3729 -3.40776 0)
(76.8498 -2.81505 0)
(101.696 -2.3794 0)
(121.787 -2.02342 0)
(135.163 -1.87037 0)
(149.187 -1.80966 0)
(168.255 -1.5073 0)
(177.803 -0.388545 0)
(163.228 0.95728 0)
(125.365 2.58457 0)
(90.1265 3.97941 0)
(84.337 4.48882 0)
(98.4291 4.28066 0)
(125.329 2.66428 0)
(149.427 -0.0511629 0)
(149.401 -1.21736 0)
(131.535 -1.0495 0)
(114.147 -0.54371 0)
(111.688 -0.835456 0)
(124.611 -2.09543 0)
(136.786 -2.8508 0)
(134.773 -2.32316 0)
(127.667 -1.18781 0)
(122.755 -0.444968 0)
(123.717 -0.470638 0)
(128.706 -0.847034 0)
(132.23 -1.03865 0)
(132.006 -0.892335 0)
(130.196 -0.553947 0)
(128.888 -0.278718 0)
(129.057 -0.24659 0)
(129.814 -0.292478 0)
(130.197 -0.346743 0)
(130.057 -0.349633 0)
(129.405 -0.300842 0)
(128.793 -0.221414 0)
(128.628 -0.172476 0)
(128.607 -0.135615 0)
(128.608 -0.0869851 0)
(128.584 -0.0492718 0)
(128.602 -0.018332 0)
(128.838 0.0025977 0)
(129.399 -0.0103636 0)
(130.157 -0.0648948 0)
(130.551 -0.129923 0)
(130.572 -0.169852 0)
(130.467 -0.210144 0)
(130.237 -0.249497 0)
(129.908 -0.282385 0)
(129.537 -0.311421 0)
(129.145 -0.333166 0)
(128.738 -0.338061 0)
(128.334 -0.318374 0)
(127.964 -0.275793 0)
(127.647 -0.217634 0)
(127.395 -0.155468 0)
(127.24 -0.0992755 0)
(127.172 -0.0539298 0)
(127.16 -0.017619 0)
(127.222 0.0287486 0)
(127.393 0.0780462 0)
(127.705 0.119737 0)
(128.181 0.141884 0)
(128.758 0.131103 0)
(129.263 0.0862771 0)
(129.511 0.0163491 0)
(129.566 -0.0643814 0)
(129.524 -0.146462 0)
(129.415 -0.243485 0)
(129.157 -0.341752 0)
(128.645 -0.421404 0)
(127.791 -0.427592 0)
(126.622 -0.334084 0)
(125.458 -0.155216 0)
(124.779 0.0199761 0)
(124.602 0.137655 0)
(124.579 0.220438 0)
(124.625 0.304023 0)
(124.776 0.391642 0)
(125.123 0.47061 0)
(125.754 0.527429 0)
(126.683 0.546762 0)
(127.76 0.522643 0)
(128.623 0.461461 0)
(129.018 0.379162 0)
(129.104 0.296546 0)
(129.096 0.220828 0)
(129.032 0.137081 0)
(128.837 0.0524421 0)
(128.37 -0.0277605 0)
(127.465 -0.0829876 0)
(126.096 -0.0736258 0)
(124.652 0.0259515 0)
(123.815 0.16484 0)
(123.619 0.279919 0)
(123.605 0.366517 0)
(123.649 0.459055 0)
(123.808 0.558313 0)
(124.211 0.646986 0)
(125.01 0.685515 0)
(126.346 0.632615 0)
(128.189 0.458941 0)
(130.08 0.177954 0)
(131.258 -0.112915 0)
(131.62 -0.365848 0)
(131.689 -0.591385 0)
(131.695 -0.837521 0)
(131.558 -1.10858 0)
(131.149 -1.40019 0)
(130.257 -1.65489 0)
(128.659 -1.72932 0)
(126.304 -1.50635 0)
(123.812 -0.99194 0)
(122.173 -0.391724 0)
(121.588 0.053789 0)
(121.511 0.354806 0)
(121.569 0.614648 0)
(121.861 0.869149 0)
(122.596 1.12247 0)
(123.901 1.3419 0)
(125.523 1.5057 0)
(126.668 1.67227 0)
(126.942 1.91169 0)
(126.838 2.16556 0)
(126.587 2.5079 0)
(126.12 2.93638 0)
(125.388 3.40255 0)
(124.851 3.67724 0)
(124.646 3.67777 0)
(124.782 3.51867 0)
(125.366 3.15214 0)
(126.507 2.55847 0)
(128.215 1.68307 0)
(130.09 0.55839 0)
(131.329 -0.648769 0)
(131.706 -1.77471 0)
(131.59 -2.88842 0)
(130.668 -4.09226 0)
(128.861 -5.25739 0)
(126.55 -5.93984 0)
(124.287 -5.67599 0)
(122.21 -4.66271 0)
(120.292 -3.3152 0)
(118.826 -2.09089 0)
(118.148 -1.24463 0)
(118.077 -0.700242 0)
(118.24 -0.256417 0)
(118.595 0.148959 0)
(119.272 0.467898 0)
(120.277 0.651619 0)
(121.5 0.703542 0)
(122.809 0.630998 0)
(124.153 0.480282 0)
(125.495 0.312794 0)
(126.814 0.175846 0)
(128.107 0.0947903 0)
(129.407 0.0787452 0)
(130.772 0.111759 0)
(132.235 0.168149 0)
(133.819 0.23544 0)
(135.531 0.305783 0)
(137.364 0.372707 0)
(139.303 0.430487 0)
(141.351 0.47923 0)
(143.562 0.517164 0)
(146.093 0.539142 0)
(149.247 0.549347 0)
(153.387 0.543259 0)
(158.026 0.505341 0)
(160.638 0.408125 0)
(160.847 0.310617 0)
(160.438 0.207361 0)
(158.119 0.0890133 0)
(150.382 -0.00756877 0)
(133.353 -0.045731 0)
(114.054 -0.0226517 0)
(106.578 -0.00233856 0)
(105.941 0.000563115 0)
(105.945 0.00104126 0)
(105.981 0.00137565 0)
(106.068 0.00121111 0)
(106.192 0.000558104 0)
(106.311 -0.000174442 0)
(106.401 -0.000573509 0)
(106.467 -0.00063243 0)
(106.526 -0.000497268 0)
(106.588 -0.000283434 0)
(106.657 -0.000165436 0)
(106.735 -9.86654e-05 0)
(106.817 -5.9647e-05 0)
(106.898 -0.000124888 0)
(106.978 -0.000101671 0)
(107.056 -0.000129816 0)
(107.133 -0.000151075 0)
(107.211 -1.81673e-05 0)
(107.29 -1.44624e-05 0)
(107.371 6.5671e-05 0)
(107.454 0.00016416 0)
(107.536 0.000123285 0)
(107.622 0.000273962 0)
(107.698 0.000252649 0)
(107.83 0.000267221 0)
(-2495.51 1.5387 0)
(-454.246 -1.42562 0)
(71.8755 1.68459 0)
(291.953 -0.938395 0)
(344.063 -1.45054 0)
(353.406 -2.7561 0)
(340.969 -2.937 0)
(325.876 -3.74352 0)
(325.47 -5.71548 0)
(288.176 -6.83374 0)
(112.992 -4.07625 0)
(-187.987 3.63031 0)
(-235.866 6.01897 0)
(-220.585 6.631 0)
(-176.525 6.69782 0)
(-119.58 6.41341 0)
(-62.0934 6.22708 0)
(-6.27833 5.99318 0)
(49.3251 5.52325 0)
(107.045 4.50942 0)
(169.015 2.43053 0)
(235.424 -1.06387 0)
(298.402 -5.55166 0)
(341.21 -9.42701 0)
(355.733 -11.8325 0)
(354.523 -13.3785 0)
(301.91 -13.5016 0)
(63.36 -6.85643 0)
(-129.627 0.576708 0)
(-136.38 2.26897 0)
(-115.901 3.16606 0)
(-75.9998 3.65997 0)
(-36.239 4.22059 0)
(-4.09165 4.80866 0)
(23.484 5.26971 0)
(50.0366 5.57883 0)
(77.1943 5.88963 0)
(104.99 6.14733 0)
(132.83 6.37505 0)
(161.532 6.60399 0)
(196.541 6.65233 0)
(247.425 6.27799 0)
(302.898 5.36231 0)
(320.209 4.64577 0)
(310.172 4.1144 0)
(217.027 4.12501 0)
(0.429133 4.97151 0)
(-65.1304 5.23977 0)
(-61.1465 5.16522 0)
(-39.9118 4.95309 0)
(-5.66678 4.55214 0)
(24.4561 4.02682 0)
(45.8602 3.40314 0)
(62.5761 2.55719 0)
(79.4549 1.64163 0)
(97.2223 0.628441 0)
(115.309 -0.517915 0)
(132.756 -1.64445 0)
(150.52 -2.60685 0)
(174.942 -3.34617 0)
(214.671 -3.959 0)
(259.93 -4.1913 0)
(277.911 -3.62158 0)
(255.923 -2.95687 0)
(153.578 -2.82114 0)
(18.9572 -3.48186 0)
(-4.40346 -4.11518 0)
(2.93699 -4.53107 0)
(29.4411 -4.69237 0)
(59.9552 -4.3728 0)
(83.3946 -3.95795 0)
(98.4336 -3.69147 0)
(109.18 -3.43937 0)
(119.228 -3.05461 0)
(129.91 -2.5665 0)
(142.85 -1.83996 0)
(162.303 -0.532071 0)
(195.237 1.79686 0)
(227.825 4.89641 0)
(234.379 6.83645 0)
(207.36 7.27132 0)
(122.43 4.58667 0)
(47.013 1.02966 0)
(31.8994 0.412331 0)
(41.1872 0.598156 0)
(65.3068 1.52294 0)
(91.4404 2.75237 0)
(108.807 3.75123 0)
(117.622 4.33555 0)
(123.152 4.37763 0)
(129.889 3.8669 0)
(142.861 3.08763 0)
(168.395 2.04954 0)
(194.558 0.686618 0)
(199.793 -1.03506 0)
(169.918 -2.60028 0)
(109.983 -3.82773 0)
(70.296 -4.17825 0)
(62.7775 -4.05298 0)
(78.2485 -3.62971 0)
(102.684 -2.96469 0)
(121.773 -2.70935 0)
(134.044 -2.33806 0)
(147.315 -2.21182 0)
(166.66 -1.95687 0)
(177.278 -0.660224 0)
(163.699 0.921141 0)
(126.248 3.09931 0)
(90.8977 5.03913 0)
(84.8932 5.80721 0)
(98.6184 5.6014 0)
(124.538 3.6291 0)
(149.477 -0.0248572 0)
(152.521 -2.18538 0)
(135.509 -2.138 0)
(116.875 -1.03617 0)
(111.805 -0.765242 0)
(122.892 -1.92206 0)
(136.917 -3.37596 0)
(136.389 -3.0821 0)
(129.694 -1.91103 0)
(123.446 -0.768099 0)
(123.571 -0.607244 0)
(127.987 -0.900624 0)
(132.205 -1.18415 0)
(132.289 -1.0579 0)
(130.718 -0.759777 0)
(129.027 -0.446327 0)
(129.023 -0.388997 0)
(129.627 -0.413245 0)
(130.082 -0.455517 0)
(129.996 -0.445933 0)
(129.441 -0.3882 0)
(128.808 -0.298283 0)
(128.612 -0.233906 0)
(128.589 -0.186048 0)
(128.608 -0.113901 0)
(128.598 -0.0432988 0)
(128.617 0.00830536 0)
(128.816 0.0424128 0)
(129.308 0.0317206 0)
(130.011 -0.0357809 0)
(130.429 -0.124289 0)
(130.472 -0.185293 0)
(130.376 -0.242438 0)
(130.162 -0.300429 0)
(129.841 -0.347147 0)
(129.474 -0.385825 0)
(129.092 -0.415471 0)
(128.708 -0.431134 0)
(128.343 -0.422994 0)
(128.019 -0.383457 0)
(127.736 -0.315447 0)
(127.492 -0.231433 0)
(127.323 -0.146571 0)
(127.245 -0.0727315 0)
(127.232 -0.0104618 0)
(127.293 0.0550739 0)
(127.454 0.117822 0)
(127.74 0.163236 0)
(128.167 0.178918 0)
(128.686 0.157635 0)
(129.141 0.0961471 0)
(129.36 0.00114867 0)
(129.402 -0.103322 0)
(129.351 -0.211134 0)
(129.23 -0.329259 0)
(128.974 -0.44565 0)
(128.508 -0.540413 0)
(127.771 -0.579239 0)
(126.787 -0.510198 0)
(125.744 -0.314055 0)
(125.013 -0.0712364 0)
(124.761 0.122076 0)
(124.727 0.260565 0)
(124.77 0.388856 0)
(124.912 0.516319 0)
(125.229 0.627857 0)
(125.806 0.708675 0)
(126.664 0.740991 0)
(127.665 0.710474 0)
(128.482 0.620918 0)
(128.869 0.497731 0)
(128.961 0.374662 0)
(128.954 0.260526 0)
(128.883 0.142571 0)
(128.678 0.0195355 0)
(128.219 -0.10528 0)
(127.374 -0.20162 0)
(126.143 -0.216415 0)
(124.849 -0.109047 0)
(124.035 0.0827985 0)
(123.797 0.265201 0)
(123.781 0.406169 0)
(123.826 0.542111 0)
(123.981 0.673055 0)
(124.355 0.784754 0)
(125.08 0.86102 0)
(126.253 0.854145 0)
(127.86 0.690605 0)
(129.601 0.359819 0)
(130.828 -0.0416633 0)
(131.257 -0.395396 0)
(131.321 -0.691823 0)
(131.306 -1.00303 0)
(131.149 -1.32642 0)
(130.755 -1.64134 0)
(129.968 -1.90226 0)
(128.619 -2.0503 0)
(126.727 -1.97314 0)
(124.644 -1.56528 0)
(123.028 -0.946083 0)
(122.264 -0.340413 0)
(122.108 0.14417 0)
(122.164 0.567266 0)
(122.449 0.969157 0)
(123.154 1.36156 0)
(124.389 1.72018 0)
(125.932 2.02899 0)
(127.092 2.3154 0)
(127.436 2.62388 0)
(127.38 2.93201 0)
(127.187 3.30888 0)
(126.822 3.72227 0)
(126.108 4.16335 0)
(125.148 4.53972 0)
(124.698 4.60058 0)
(124.619 4.46656 0)
(124.827 4.15918 0)
(125.45 3.59961 0)
(126.537 2.64993 0)
(127.902 1.20763 0)
(129.081 -0.583829 0)
(129.609 -2.35542 0)
(129.593 -3.91102 0)
(128.849 -5.19953 0)
(127.59 -6.14519 0)
(126.254 -6.56297 0)
(125.053 -6.44268 0)
(123.793 -5.83303 0)
(122.254 -4.81264 0)
(120.618 -3.54981 0)
(119.445 -2.34741 0)
(119.014 -1.42302 0)
(119.075 -0.737294 0)
(119.32 -0.152353 0)
(119.781 0.321019 0)
(120.507 0.621281 0)
(121.479 0.72086 0)
(122.631 0.694102 0)
(123.902 0.580384 0)
(125.25 0.434976 0)
(126.633 0.2996 0)
(128.027 0.203502 0)
(129.432 0.161552 0)
(130.862 0.173532 0)
(132.355 0.233051 0)
(133.949 0.319618 0)
(135.657 0.415225 0)
(137.475 0.510058 0)
(139.394 0.594279 0)
(141.418 0.66561 0)
(143.606 0.721741 0)
(146.112 0.75676 0)
(149.24 0.772877 0)
(153.337 0.761526 0)
(157.899 0.698129 0)
(160.43 0.558332 0)
(160.624 0.425786 0)
(160.215 0.280362 0)
(157.907 0.116563 0)
(150.233 -0.014648 0)
(133.342 -0.0663562 0)
(114.113 -0.033685 0)
(106.593 -0.00392132 0)
(105.942 0.000487812 0)
(105.946 0.00124076 0)
(105.981 0.00182941 0)
(106.067 0.00169255 0)
(106.19 0.000825529 0)
(106.31 -0.000210002 0)
(106.4 -0.000783563 0)
(106.467 -0.000850746 0)
(106.526 -0.000650467 0)
(106.588 -0.000362133 0)
(106.657 -0.00020276 0)
(106.735 -0.000124435 0)
(106.816 -9.51932e-05 0)
(106.898 -0.000192264 0)
(106.978 -0.000142034 0)
(107.056 -0.000158311 0)
(107.133 -0.000168096 0)
(107.211 1.84634e-05 0)
(107.29 1.19561e-05 0)
(107.371 0.000123746 0)
(107.454 0.000277244 0)
(107.536 0.000228962 0)
(107.622 0.000447227 0)
(107.698 0.000415023 0)
(107.83 0.000433243 0)
(-2495.22 1.19747 0)
(-467.894 35.9119 0)
(74.0178 -0.495652 0)
(290.351 -1.99654 0)
(343.996 -2.24305 0)
(352.402 -3.79625 0)
(339.837 -4.03604 0)
(325.177 -5.04591 0)
(323.755 -8.25182 0)
(287.722 -9.92798 0)
(124.311 -6.78137 0)
(-178.129 3.16446 0)
(-233.681 6.38508 0)
(-219.461 7.1445 0)
(-176.286 7.30888 0)
(-119.336 7.08553 0)
(-61.6797 6.78739 0)
(-5.87626 6.34608 0)
(49.4028 5.74263 0)
(106.193 4.71507 0)
(166.464 2.78987 0)
(230.915 -0.105349 0)
(293.409 -3.32309 0)
(337.945 -6.12925 0)
(353.12 -8.33009 0)
(352.473 -9.94127 0)
(304.924 -9.89439 0)
(78.0692 -3.84826 0)
(-124.731 3.5119 0)
(-134.301 5.16384 0)
(-114.878 5.78224 0)
(-75.2655 5.84197 0)
(-35.1699 5.8519 0)
(-2.85148 5.96565 0)
(24.6456 6.09241 0)
(51.0588 6.24799 0)
(78.1248 6.43183 0)
(105.875 6.63931 0)
(133.637 6.77067 0)
(162.097 6.77567 0)
(196.576 6.65869 0)
(246.676 6.10433 0)
(301.963 5.05628 0)
(319.592 4.23561 0)
(309.826 3.7965 0)
(218.245 4.01765 0)
(2.1924 5.36958 0)
(-64.8318 5.82973 0)
(-61.0111 5.75528 0)
(-39.9848 5.54036 0)
(-5.88633 5.1346 0)
(24.0783 4.5327 0)
(45.2017 3.87909 0)
(61.678 2.858 0)
(78.4029 1.75276 0)
(95.9558 0.356965 0)
(113.936 -0.995532 0)
(131.408 -2.39478 0)
(149.333 -3.54643 0)
(173.779 -4.36522 0)
(213.644 -5.02307 0)
(259.552 -5.29276 0)
(278.548 -4.48507 0)
(256.035 -3.52371 0)
(152.845 -2.97948 0)
(18.3081 -3.30789 0)
(-4.83443 -3.8456 0)
(2.71047 -4.23197 0)
(29.7999 -4.40903 0)
(60.5032 -4.15744 0)
(83.861 -3.78196 0)
(98.5668 -3.62459 0)
(109.211 -3.58803 0)
(119.352 -3.42783 0)
(130.207 -3.09389 0)
(143.529 -2.62777 0)
(164.151 -1.70542 0)
(198.801 0.382722 0)
(231.766 3.88834 0)
(235.875 6.60857 0)
(206.711 7.5872 0)
(116.917 5.12097 0)
(45.6775 1.4943 0)
(33.1773 0.750822 0)
(43.6665 0.85701 0)
(68.7779 1.85942 0)
(95.1102 3.23784 0)
(112.073 4.4729 0)
(120.198 4.38897 0)
(124.953 4.33425 0)
(131.251 3.63112 0)
(144.102 2.95715 0)
(169.653 2.27516 0)
(195.749 1.3228 0)
(200.588 -0.156378 0)
(170.615 -1.65726 0)
(110.946 -3.14836 0)
(71.613 -3.86834 0)
(64.2833 -3.96518 0)
(79.7359 -3.78156 0)
(103.864 -3.29491 0)
(122.094 -2.87837 0)
(133.189 -3.11309 0)
(145.504 -2.85889 0)
(165.057 -2.46687 0)
(176.869 -1.02475 0)
(164.666 0.75858 0)
(127.801 3.09892 0)
(92.2011 5.29815 0)
(85.8329 6.23508 0)
(99.2327 6.15975 0)
(124.177 4.28554 0)
(149.7 0.469339 0)
(156.221 -2.53377 0)
(140.698 -2.75428 0)
(121.192 -1.58551 0)
(113.035 -0.956195 0)
(121.208 -1.66665 0)
(136.513 -3.42736 0)
(138.262 -3.40835 0)
(131.894 -2.42457 0)
(124.64 -1.08339 0)
(123.768 -0.78197 0)
(127.394 -0.945049 0)
(132.087 -1.25815 0)
(132.578 -1.17638 0)
(131.224 -0.926846 0)
(129.247 -0.609454 0)
(129.027 -0.527222 0)
(129.474 -0.526811 0)
(129.979 -0.54879 0)
(129.934 -0.528246 0)
(129.462 -0.462861 0)
(128.829 -0.361691 0)
(128.61 -0.282094 0)
(128.592 -0.219361 0)
(128.633 -0.121263 0)
(128.632 -0.0278293 0)
(128.643 0.0436118 0)
(128.793 0.0915417 0)
(129.208 0.0932974 0)
(129.84 0.0304481 0)
(130.273 -0.0664275 0)
(130.338 -0.143836 0)
(130.249 -0.214183 0)
(130.048 -0.292596 0)
(129.741 -0.359717 0)
(129.386 -0.416837 0)
(129.024 -0.461133 0)
(128.675 -0.485264 0)
(128.361 -0.477488 0)
(128.089 -0.432713 0)
(127.845 -0.354033 0)
(127.611 -0.253361 0)
(127.421 -0.147874 0)
(127.328 -0.0561121 0)
(127.309 0.0189188 0)
(127.365 0.0905882 0)
(127.512 0.153886 0)
(127.767 0.19538 0)
(128.146 0.207289 0)
(128.606 0.18043 0)
(129.003 0.11096 0)
(129.18 0.0031815 0)
(129.203 -0.113183 0)
(129.143 -0.238289 0)