/*--------------------------------*- C++ -*----------------------------------*\
| =========                 |                                                 |
| \\      /  F ield         | OpenFOAM: The Open Source CFD Toolbox           |
|  \\    /   O peration     | Version:  2306                                  |
|   \\  /    A nd           | Website:  www.openfoam.com                      |
|    \\/     M anipulation  |                                                 |
\*---------------------------------------------------------------------------*/
FoamFile
{
    version     2.0;
    format      ascii;
    arch        "LSB;label=32;scalar=64";
    class       volVectorField;
    location    "0.06";
    object      U;
}
// * * * * * * * * * * * * * * * * * * * * * * * * * * * * * * * * * * * * * //

dimensions      [0 1 -1 0 0 0 0];

internalField   nonuniform List<vector> 
6000
(
(500 3.67597e-14 0)
(500 -1.31706e-14 0)
(500 -9.58892e-14 0)
(500 2.66586e-15 0)
(500 5.11912e-14 0)
(500 7.39207e-14 0)
(500 1.71008e-13 0)
(500 1.44988e-13 0)
(500 1.29559e-13 0)
(500 2.15336e-13 0)
(500 3.08196e-14 0)
(500 2.46187e-14 0)
(500 -8.52484e-14 0)
(500 -3.56202e-14 0)
(500 -7.96552e-14 0)
(500 -4.64553e-14 0)
(500 -3.51395e-13 0)
(500 1.17124e-12 0)
(500 -2.42994e-12 0)
(500 -1.25484e-13 0)
(500 1.25688e-10 0)
(500 -8.85702e-10 0)
(500 3.16929e-09 0)
(500 -6.7691e-09 0)
(499.999 4.16894e-09 0)
(499.998 7.53012e-09 0)
(499.992 1.52511e-09 0)
(499.977 -4.1832e-07 0)
(499.937 7.82651e-07 0)
(499.842 -5.21641e-06 0)
(499.651 1.38845e-05 0)
(499.357 -2.80147e-05 0)
(499.12 -1.1892e-05 0)
(499.077 -1.34e-06 0)
(499.096 2.77644e-05 0)
(499.194 -0.000249891 0)
(499.429 0.000287017 0)
(499.824 0.00175537 0)
(500.359 -0.003286 0)
(500.981 -0.00138949 0)
(501.626 0.00937781 0)
(502.253 0.000207149 0)
(502.835 -0.0109571 0)
(503.339 0.00177956 0)
(503.74 0.0140695 0)
(504.059 0.00116089 0)
(504.307 -0.00963022 0)
(504.499 -0.00446777 0)
(504.641 0.00596221 0)
(504.752 0.00739376 0)
(504.851 -0.000525551 0)
(504.939 -0.00515795 0)
(505.017 -0.00367148 0)
(505.083 0.00131253 0)
(505.135 0.00428296 0)
(505.183 0.00124691 0)
(505.23 -0.00237431 0)
(505.273 -0.00272233 0)
(505.306 -0.000601979 0)
(505.317 0.00141792 0)
(505.317 0.00111775 0)
(505.316 -3.43171e-05 0)
(505.315 -0.000945731 0)
(505.312 -0.00104178 0)
(505.303 -0.000369758 0)
(505.289 0.000241997 0)
(505.269 0.000640792 0)
(505.246 0.00039783 0)
(505.223 -0.000659562 0)
(505.205 -0.000894681 0)
(505.188 0.000139121 0)
(505.175 0.000688216 0)
(505.164 0.000376213 0)
(505.154 -0.000360632 0)
(505.146 -0.000626738 0)
(505.139 -8.35927e-05 0)
(505.133 0.000406779 0)
(505.127 0.000372061 0)
(505.123 2.93042e-05 0)
(505.12 -0.00021562 0)
(505.118 -0.000173287 0)
(505.116 2.92991e-05 0)
(505.114 0.000111468 0)
(505.111 0.000106146 0)
(505.109 2.12252e-05 0)
(505.109 -9.39525e-05 0)
(505.109 -0.000114464 0)
(505.109 -4.68155e-05 0)
(505.11 4.62057e-05 0)
(505.112 7.21361e-05 0)
(505.116 5.0519e-05 0)
(505.123 -1.51753e-05 0)
(505.131 7.43536e-06 0)
(505.14 3.99722e-05 0)
(505.15 -4.99074e-05 0)
(505.159 3.16678e-05 0)
(505.168 0.000182417 0)
(505.176 1.39378e-05 0)
(505.183 -0.000218639 0)
(505.189 -6.00733e-05 0)
(505.194 0.000168387 0)
(505.2 5.8652e-05 0)
(505.203 -7.35724e-05 0)
(505.204 -7.47446e-05 0)
(505.204 -3.8467e-05 0)
(505.204 2.09811e-05 0)
(505.203 4.6915e-05 0)
(505.201 3.98268e-05 0)
(505.197 2.0664e-05 0)
(505.191 6.5019e-06 0)
(505.184 -3.26993e-05 0)
(505.177 -3.66449e-06 0)
(505.171 5.23543e-05 0)
(505.165 2.31707e-05 0)
(505.161 -3.66479e-05 0)
(505.157 -5.52825e-05 0)
(505.155 -1.8395e-05 0)
(505.152 -8.7831e-07 0)
(505.149 -1.63545e-05 0)
(505.147 -3.70379e-05 0)
(505.145 -4.8287e-05 0)
(505.143 -4.43165e-05 0)
(505.141 -1.6422e-05 0)
(505.139 -1.60853e-06 0)
(505.137 9.29496e-06 0)
(505.134 2.92618e-05 0)
(505.129 2.91028e-05 0)
(505.123 3.03168e-05 0)
(505.115 7.8311e-06 0)
(505.11 7.63649e-06 0)
(505.109 2.8358e-05 0)
(505.11 3.28303e-05 0)
(505.111 3.33979e-05 0)
(505.115 -7.51875e-06 0)
(505.123 -5.3056e-05 0)
(505.133 -5.4612e-06 0)
(505.145 -9.59126e-06 0)
(505.156 -0.000107821 0)
(505.163 -7.78337e-05 0)
(505.168 9.44684e-06 0)
(505.171 4.86717e-05 0)
(505.175 4.69733e-05 0)
(505.178 4.44971e-05 0)
(505.183 4.86808e-05 0)
(505.188 5.65315e-05 0)
(505.193 8.67963e-05 0)
(505.197 0.000113422 0)
(505.2 0.000106602 0)
(505.202 4.54e-05 0)
(505.202 -3.47098e-05 0)
(505.202 -0.000105606 0)
(505.202 -0.000134732 0)
(505.2 -0.000141465 0)
(505.197 -0.000136966 0)
(505.192 -0.000101268 0)
(505.186 -9.36377e-05 0)
(505.179 -0.000106554 0)
(505.173 -8.3605e-05 0)
(505.167 9.2142e-05 0)
(505.162 0.000179022 0)
(505.158 0.000183448 0)
(505.155 0.000162466 0)
(505.152 0.000119201 0)
(505.151 5.89079e-05 0)
(505.149 2.03606e-05 0)
(505.148 -8.68979e-06 0)
(505.146 -4.66126e-05 0)
(505.145 -0.000111944 0)
(505.143 -0.000163808 0)
(505.142 -0.000165944 0)
(505.14 -0.000137316 0)
(505.138 -9.77532e-05 0)
(505.136 -2.42553e-05 0)
(505.132 6.64687e-05 0)
(505.128 8.67794e-05 0)
(505.121 9.90291e-05 0)
(505.112 0.000115417 0)
(505.106 0.000112657 0)
(505.105 0.000117203 0)
(505.106 8.19074e-05 0)
(505.107 3.59553e-05 0)
(505.111 -4.69825e-05 0)
(505.119 -9.52775e-05 0)
(505.131 -3.22398e-05 0)
(505.144 -8.59985e-05 0)
(505.157 -0.000197394 0)
(505.166 -0.000184014 0)
(505.172 -8.65507e-05 0)
(505.175 4.98839e-05 0)
(505.178 0.00010539 0)
(505.18 0.000106529 0)
(505.183 0.000116553 0)
(505.187 0.000146888 0)
(505.191 0.000165307 0)
(505.195 0.000152354 0)
(505.199 9.6363e-05 0)
(505.204 -2.42998e-05 0)
(505.207 -0.000124402 0)
(505.207 -0.000134379 0)
(505.207 -0.000108592 0)
(505.206 -7.12711e-05 0)
(505.203 -6.79246e-05 0)
(505.2 -6.89269e-05 0)
(505.196 -6.20743e-05 0)
(505.189 -2.89829e-05 0)
(505.182 4.42117e-05 0)
(505.174 0.000111282 0)
(505.168 0.000106472 0)
(505.163 5.73084e-05 0)
(505.159 1.36868e-05 0)
(505.156 -2.15061e-06 0)
(505.153 -8.16114e-06 0)
(505.151 -2.12992e-05 0)
(505.149 -5.23289e-05 0)
(505.147 -7.94532e-05 0)
(505.146 -6.76225e-05 0)
(505.144 1.19103e-05 0)
(505.142 7.37206e-05 0)
(505.141 8.39997e-05 0)
(505.138 6.7717e-05 0)
(505.136 1.64587e-05 0)
(505.133 -2.94383e-05 0)
(505.13 -4.43088e-05 0)
(505.127 -4.60194e-05 0)
(505.121 -2.25233e-05 0)
(505.112 -3.09953e-05 0)
(505.102 -8.79918e-05 0)
(505.096 -0.00011312 0)
(505.094 -0.000125376 0)
(505.094 -8.24411e-05 0)
(505.096 1.69247e-06 0)
(505.102 6.76298e-05 0)
(505.113 0.000101017 0)
(505.128 0.000132482 0)
(505.144 0.00016938 0)
(505.158 0.000184303 0)
(505.168 0.000194917 0)
(505.174 7.69286e-05 0)
(505.18 -0.000120197 0)
(505.184 -0.000175707 0)
(505.187 -0.000184779 0)
(505.191 -0.000193389 0)
(505.195 -0.000226525 0)
(505.199 -0.000258375 0)
(505.203 -0.000246861 0)
(505.206 -6.78479e-05 0)
(505.209 0.000231891 0)
(505.212 0.000311864 0)
(505.213 0.000337437 0)
(505.213 0.000336429 0)
(505.213 0.000277238 0)
(505.212 0.000168313 0)
(505.211 8.08128e-05 0)
(505.208 -1.72288e-05 0)
(505.202 -0.000142629 0)
(505.195 -0.000312559 0)
(505.187 -0.000413628 0)
(505.179 -0.000457081 0)
(505.172 -0.000450941 0)
(505.165 -0.000289941 0)
(505.158 -4.41129e-05 0)
(505.153 0.000141789 0)
(505.149 0.000252035 0)
(505.145 0.000309646 0)
(505.142 0.000359968 0)
(505.139 0.000404477 0)
(505.139 0.000389122 0)
(505.139 0.000254162 0)
(505.136 9.13359e-05 0)
(505.133 -6.97392e-05 0)
(505.129 -0.000216207 0)
(505.125 -0.000277159 0)
(505.12 -0.000280764 0)
(505.112 -0.000254142 0)
(505.101 -0.000219173 0)
(505.087 -0.000228064 0)
(505.074 -0.000176416 0)
(505.068 -0.000120837 0)
(505.068 -1.46155e-05 0)
(505.071 6.45649e-05 0)
(505.079 0.000162781 0)
(505.095 0.000223628 0)
(505.115 0.000234599 0)
(505.137 0.000237385 0)
(505.157 0.000126153 0)
(505.17 -4.98305e-05 0)
(505.178 -8.88229e-05 0)
(505.183 -7.6471e-05 0)
(505.187 -5.98249e-05 0)
(505.188 -4.77141e-05 0)
(505.191 -3.95138e-05 0)
(505.196 -2.13833e-05 0)
(505.202 -2.21226e-06 0)
(505.207 1.13486e-05 0)
(505.213 -7.41726e-06 0)
(505.22 -0.000100638 0)
(505.226 -0.000175432 0)
(505.23 -0.000146645 0)
(505.232 -7.70468e-05 0)
(505.233 -1.64428e-05 0)
(500 -1.15671e-14 0)
(500 -9.99647e-14 0)
(500 -1.81028e-13 0)
(500 -7.17072e-14 0)
(500 -1.88889e-14 0)
(500 1.74749e-14 0)
(500 1.2994e-13 0)
(500 1.39944e-13 0)
(500 6.528e-14 0)
(500 9.53491e-14 0)
(500 7.8295e-14 0)
(500 1.0287e-13 0)
(500 -6.19401e-14 0)
(500 -5.98858e-14 0)
(500 -1.95917e-13 0)
(500 -1.35617e-13 0)
(500 -7.59569e-13 0)
(500 2.34614e-12 0)
(500 -5.11163e-12 0)
(500 -2.84389e-11 0)
(500 3.38418e-10 0)
(500 -1.71537e-09 0)
(500 5.85829e-09 0)
(500 -1.15549e-08 0)
(499.999 -3.62436e-09 0)
(499.998 5.87123e-08 0)
(499.992 6.11368e-08 0)
(499.977 -1.84249e-06 0)
(499.937 9.79911e-06 0)
(499.842 -2.7208e-05 0)
(499.651 5.3362e-05 0)
(499.357 -4.53808e-05 0)
(499.12 -8.92989e-06 0)
(499.077 1.04206e-05 0)
(499.096 2.77437e-05 0)
(499.194 -0.000226671 0)
(499.429 0.000432049 0)
(499.825 0.00116371 0)
(500.36 -0.00353942 0)
(500.979 -0.000160177 0)
(501.626 0.00856534 0)
(502.258 -0.00222054 0)
(502.836 -0.0115973 0)
(503.334 0.00447225 0)
(503.739 0.0135068 0)
(504.065 -0.000553037 0)
(504.31 -0.011483 0)
(504.497 -0.00406641 0)
(504.638 0.00789173 0)
(504.753 0.00761318 0)
(504.855 -0.000581458 0)
(504.941 -0.00636473 0)
(505.017 -0.00415217 0)
(505.081 0.00250899 0)
(505.135 0.00502672 0)
(505.185 0.00191964 0)
(505.232 -0.0025744 0)
(505.273 -0.00321516 0)
(505.305 -0.000563032 0)
(505.317 0.00189424 0)
(505.318 0.00172625 0)
(505.317 0.00025959 0)
(505.316 -0.000995729 0)
(505.312 -0.00120666 0)
(505.303 -0.000480025 0)
(505.288 0.000490365 0)
(505.269 0.00108708 0)
(505.246 0.000572856 0)
(505.224 -0.000902598 0)
(505.205 -0.00102096 0)
(505.188 9.02985e-05 0)
(505.175 0.00076481 0)
(505.164 0.000445505 0)
(505.155 -0.000452854 0)
(505.146 -0.00072087 0)
(505.139 -0.000194265 0)
(505.133 0.000340914 0)
(505.128 0.000389311 0)
(505.123 9.00333e-05 0)
(505.12 -0.000182213 0)
(505.118 -0.000179414 0)
(505.116 1.02147e-05 0)
(505.114 0.000142179 0)
(505.111 0.000142023 0)
(505.109 3.16714e-05 0)
(505.109 -0.000156438 0)
(505.109 -0.00019816 0)
(505.109 -0.000153589 0)
(505.11 -1.87211e-05 0)
(505.112 6.27993e-05 0)
(505.116 6.14798e-05 0)
(505.123 1.65302e-05 0)
(505.131 4.74686e-05 0)
(505.14 6.07158e-05 0)
(505.15 -8.97293e-06 0)
(505.159 9.89369e-05 0)
(505.168 0.000195172 0)
(505.176 -4.99168e-05 0)
(505.183 -0.000294356 0)
(505.189 -8.65355e-05 0)
(505.194 0.000182084 0)
(505.2 3.54519e-05 0)
(505.203 -0.000160332 0)
(505.205 -0.000195992 0)
(505.205 -0.000127355 0)
(505.204 1.59823e-05 0)
(505.203 6.2004e-05 0)
(505.201 6.25618e-05 0)
(505.197 3.96032e-05 0)
(505.191 1.04286e-05 0)
(505.184 -1.02941e-05 0)
(505.177 5.45363e-05 0)
(505.171 0.000125286 0)
(505.165 8.90263e-05 0)
(505.161 1.90575e-05 0)
(505.157 -9.36186e-06 0)
(505.154 -3.88852e-06 0)
(505.152 -6.72085e-06 0)
(505.149 -2.9596e-05 0)
(505.147 -4.86657e-05 0)
(505.145 -7.02312e-05 0)
(505.143 -9.18325e-05 0)
(505.141 -8.82148e-05 0)
(505.139 -6.69962e-05 0)
(505.137 -5.12361e-05 0)
(505.134 9.54682e-06 0)
(505.129 2.78317e-05 0)
(505.123 4.67312e-05 0)
(505.115 5.92264e-05 0)
(505.11 9.92397e-05 0)
(505.109 0.000111849 0)
(505.11 0.000112098 0)
(505.111 0.000143733 0)
(505.115 0.000104423 0)
(505.122 5.27353e-06 0)
(505.133 2.89791e-05 0)
(505.145 6.26924e-06 0)
(505.156 -0.000225923 0)
(505.163 -0.000308253 0)
(505.168 -0.000232569 0)
(505.172 -0.000100155 0)
(505.175 -1.28262e-05 0)
(505.178 -5.8705e-06 0)
(505.183 -1.07954e-05 0)
(505.188 -8.36012e-06 0)
(505.193 8.25955e-05 0)
(505.197 0.000304735 0)
(505.201 0.000375205 0)
(505.202 0.0003652 0)
(505.202 0.000275624 0)
(505.202 3.81418e-05 0)
(505.202 -0.00017435 0)
(505.2 -0.000272618 0)
(505.197 -0.000355153 0)
(505.192 -0.000351021 0)
(505.186 -0.000320311 0)
(505.179 -0.000317232 0)
(505.173 -0.000311927 0)
(505.167 -0.000125718 0)
(505.162 7.5401e-05 0)
(505.158 0.000242405 0)
(505.155 0.000311919 0)
(505.152 0.000392258 0)
(505.15 0.000434692 0)
(505.149 0.000348921 0)
(505.148 0.000289669 0)
(505.146 0.000209203 0)
(505.145 2.81742e-05 0)
(505.143 -0.0001966 0)
(505.142 -0.000330269 0)
(505.14 -0.000369746 0)
(505.138 -0.000385404 0)
(505.136 -0.000354208 0)
(505.133 -0.000174008 0)
(505.128 -0.000100897 0)
(505.121 -2.03456e-05 0)
(505.112 0.000175778 0)
(505.106 0.000340773 0)
(505.105 0.000442866 0)
(505.106 0.000377293 0)
(505.107 0.00028642 0)
(505.111 0.000146533 0)
(505.119 3.84947e-06 0)
(505.131 7.32961e-05 0)
(505.144 3.01562e-05 0)
(505.157 -0.000334223 0)
(505.166 -0.000496291 0)
(505.172 -0.000421245 0)
(505.175 -0.000234511 0)
(505.178 -0.000117171 0)
(505.181 -8.51267e-05 0)
(505.184 1.87817e-05 0)
(505.187 0.000263588 0)
(505.191 0.000476462 0)
(505.195 0.000497983 0)
(505.199 0.000445484 0)
(505.204 0.000257144 0)
(505.206 3.18884e-05 0)
(505.207 -8.70555e-05 0)
(505.207 -0.000171312 0)
(505.206 -0.000234705 0)
(505.204 -0.000244687 0)
(505.2 -0.00023725 0)
(505.196 -0.000211794 0)
(505.189 -0.000184077 0)
(505.182 -8.19472e-05 0)
(505.175 6.57441e-05 0)
(505.168 0.000139398 0)
(505.163 0.000149112 0)
(505.159 0.000159544 0)
(505.156 0.000158753 0)
(505.153 0.000129576 0)
(505.151 9.74011e-05 0)
(505.149 -9.1761e-06 0)
(505.147 -0.000161864 0)
(505.146 -0.00028765 0)
(505.144 -0.000212038 0)
(505.142 -2.89592e-05 0)
(505.141 7.69094e-05 0)
(505.139 0.000137791 0)
(505.136 0.00017495 0)
(505.133 0.000239067 0)
(505.13 0.000193696 0)
(505.126 2.12994e-05 0)
(505.121 -2.16997e-05 0)
(505.112 -4.40951e-05 0)
(505.102 -0.000201272 0)
(505.095 -0.000250435 0)
(505.094 -0.000335738 0)
(505.094 -0.000358911 0)
(505.096 -0.000309231 0)
(505.102 -0.00015856 0)
(505.113 -2.47756e-05 0)
(505.128 0.000160706 0)
(505.144 0.00052898 0)
(505.158 0.000634591 0)
(505.168 0.000817127 0)
(505.174 0.000692876 0)
(505.179 0.000126444 0)
(505.184 -0.000140035 0)
(505.187 -0.000172514 0)
(505.191 -0.000204951 0)
(505.195 -0.00033232 0)
(505.199 -0.000622101 0)
(505.202 -0.000957154 0)
(505.206 -0.000995737 0)
(505.209 -0.000274842 0)
(505.212 0.000316042 0)
(505.213 0.000423024 0)
(505.214 0.000591547 0)
(505.213 0.000737721 0)
(505.213 0.000922963 0)
(505.211 0.000882035 0)
(505.208 0.000607302 0)
(505.202 0.000343928 0)
(505.195 -1.98383e-05 0)
(505.187 -0.000407483 0)
(505.179 -0.000684771 0)
(505.172 -0.00100716 0)
(505.164 -0.00117517 0)
(505.158 -0.000894232 0)
(505.153 -0.000518494 0)
(505.149 -0.000176137 0)
(505.145 0.000156433 0)
(505.142 0.00044623 0)
(505.14 0.000741316 0)
(505.139 0.000927514 0)
(505.139 0.000879649 0)
(505.136 0.000679873 0)
(505.132 0.00048976 0)
(505.129 0.000230644 0)
(505.125 -8.24289e-05 0)
(505.12 -0.000276651 0)
(505.112 -0.000500658 0)
(505.101 -0.000717259 0)
(505.087 -0.000750277 0)
(505.074 -0.000603235 0)
(505.068 -0.000484156 0)
(505.068 -0.000345963 0)
(505.071 -0.000310989 0)
(505.079 -7.83084e-05 0)
(505.095 0.00027275 0)
(505.115 0.000360711 0)
(505.138 0.000496649 0)
(505.157 0.000461835 0)
(505.169 0.000263475 0)
(505.177 9.04044e-05 0)
(505.183 -7.56965e-05 0)
(505.186 -0.000268834 0)
(505.188 -0.000289793 0)
(505.191 -0.000133339 0)
(505.196 -4.18931e-05 0)
(505.202 2.64942e-05 0)
(505.207 0.000151972 0)
(505.212 0.000158103 0)
(505.219 -0.000182329 0)
(505.226 -0.000449721 0)
(505.23 -0.000489293 0)
(505.233 -0.000425268 0)
(505.233 -0.000380162 0)
(500 -2.66579e-14 0)
(500 -2.40277e-14 0)
(500 -1.09093e-13 0)
(500 -1.17899e-13 0)
(500 2.88659e-14 0)
(500 5.72488e-14 0)
(500 2.11379e-14 0)
(500 5.41013e-14 0)
(500 -3.29456e-14 0)
(500 -3.28947e-14 0)
(500 1.08309e-13 0)
(500 7.89797e-14 0)
(500 1.46135e-13 0)
(500 9.72701e-14 0)
(500 -9.05989e-14 0)
(500 1.06678e-13 0)
(500 -1.14027e-12 0)
(500 3.68703e-12 0)
(500 -7.3896e-12 0)
(500 -5.11118e-11 0)
(500 5.47161e-10 0)
(500 -2.77717e-09 0)
(500 9.13329e-09 0)
(500 -1.50497e-08 0)
(499.999 -1.18117e-08 0)
(499.998 1.04889e-07 0)
(499.992 1.36167e-07 0)
(499.977 -3.17121e-06 0)
(499.937 1.61561e-05 0)
(499.842 -4.8371e-05 0)
(499.651 8.94086e-05 0)
(499.357 -7.69286e-05 0)
(499.12 -1.5011e-05 0)
(499.077 1.66388e-05 0)
(499.096 1.92489e-05 0)
(499.194 -0.000229902 0)
(499.429 0.000836713 0)
(499.825 0.000340856 0)
(500.36 -0.00441942 0)
(500.979 0.00292317 0)
(501.626 0.00818816 0)
(502.259 -0.00748943 0)
(502.836 -0.0109052 0)
(503.331 0.0104172 0)
(503.739 0.0120488 0)
(504.067 -0.00563455 0)
(504.31 -0.013104 0)
(504.496 -0.000495862 0)
(504.636 0.0102734 0)
(504.754 0.00644669 0)
(504.857 -0.00277218 0)
(504.942 -0.00747719 0)
(505.017 -0.00345165 0)
(505.08 0.00426219 0)
(505.135 0.00513611 0)
(505.186 0.00113645 0)
(505.232 -0.00328076 0)
(505.274 -0.00341422 0)
(505.305 0.000176671 0)
(505.317 0.00210844 0)
(505.318 0.00189232 0)
(505.318 0.000287553 0)
(505.317 -0.0011875 0)
(505.312 -0.00126162 0)
(505.303 -0.000525375 0)
(505.288 0.000616902 0)
(505.269 0.00127456 0)
(505.246 0.000425609 0)
(505.224 -0.00112584 0)
(505.205 -0.00101161 0)
(505.188 0.000230433 0)
(505.175 0.000886948 0)
(505.164 0.000410738 0)
(505.155 -0.000648723 0)
(505.146 -0.000830902 0)
(505.139 -0.000191717 0)
(505.133 0.000414664 0)
(505.128 0.000463389 0)
(505.124 0.000203352 0)
(505.12 -0.000191747 0)
(505.118 -0.000233277 0)
(505.116 -4.48708e-06 0)
(505.114 0.000162286 0)
(505.111 0.000154386 0)
(505.11 3.09381e-05 0)
(505.109 -0.000168062 0)
(505.109 -0.000224153 0)
(505.109 -0.000179804 0)
(505.11 -1.72585e-05 0)
(505.112 6.37043e-05 0)
(505.117 4.27657e-05 0)
(505.123 1.79247e-05 0)
(505.131 0.00010251 0)
(505.14 4.38127e-05 0)
(505.15 -1.76515e-05 0)
(505.159 0.000183575 0)
(505.168 0.000200541 0)
(505.176 -0.000147629 0)
(505.183 -0.000346639 0)
(505.189 -3.43998e-05 0)
(505.194 0.000193737 0)
(505.2 -4.22331e-05 0)
(505.203 -0.00017429 0)
(505.205 -0.000208583 0)
(505.205 -0.000117933 0)
(505.204 5.73923e-05 0)
(505.203 0.000103806 0)
(505.201 7.96604e-05 0)
(505.197 3.71984e-05 0)
(505.191 -1.66066e-05 0)
(505.185 1.43851e-06 0)
(505.177 0.000123034 0)
(505.171 0.00016623 0)
(505.165 8.70988e-05 0)
(505.161 -1.78329e-05 0)
(505.157 -4.58596e-05 0)
(505.154 -1.44936e-05 0)
(505.152 6.08144e-06 0)
(505.149 -3.34509e-06 0)
(505.147 -2.03909e-05 0)
(505.145 -3.34507e-05 0)
(505.143 -6.58497e-05 0)
(505.141 -9.56983e-05 0)
(505.139 -0.000103982 0)
(505.137 -9.9287e-05 0)
(505.134 -4.99251e-05 0)
(505.129 -8.82412e-06 0)
(505.123 2.81842e-05 0)
(505.115 6.00327e-05 0)
(505.11 0.000121436 0)
(505.109 0.000142852 0)
(505.11 0.000138976 0)
(505.111 0.000149886 0)
(505.115 9.63628e-05 0)
(505.122 -1.33581e-05 0)
(505.133 2.35583e-05 0)
(505.145 2.26379e-05 0)
(505.156 -0.000241746 0)
(505.163 -0.000376757 0)
(505.168 -0.000287588 0)
(505.172 -0.00013508 0)
(505.175 -1.02391e-05 0)
(505.178 7.9236e-06 0)
(505.183 4.34614e-06 0)
(505.188 2.6541e-05 0)
(505.193 8.59793e-05 0)
(505.198 0.0002475 0)
(505.201 0.000464014 0)
(505.202 0.000479148 0)
(505.202 0.000392589 0)
(505.202 0.000186477 0)
(505.201 -0.000104883 0)
(505.2 -0.000277172 0)
(505.197 -0.000346112 0)
(505.192 -0.000353898 0)
(505.186 -0.000335465 0)
(505.179 -0.000335965 0)
(505.173 -0.000366309 0)
(505.167 -0.000239096 0)
(505.163 1.51266e-05 0)
(505.159 0.000198262 0)
(505.155 0.000289275 0)
(505.152 0.000383285 0)
(505.151 0.000452791 0)
(505.149 0.000401627 0)
(505.147 0.000338047 0)
(505.146 0.00024244 0)
(505.144 -2.60023e-06 0)
(505.143 -0.000307143 0)
(505.142 -0.000458095 0)
(505.14 -0.000500707 0)
(505.138 -0.000451706 0)
(505.136 -0.000362255 0)
(505.133 -0.000204582 0)
(505.128 -0.000145209 0)
(505.121 -8.45187e-05 0)
(505.113 0.000150453 0)
(505.106 0.000378602 0)
(505.105 0.000535973 0)
(505.105 0.000479612 0)
(505.107 0.000357214 0)
(505.111 0.00014702 0)
(505.119 -7.99768e-05 0)
(505.131 -4.36587e-05 0)
(505.144 -5.41618e-05 0)
(505.157 -0.000440949 0)
(505.166 -0.00067283 0)
(505.172 -0.000576202 0)
(505.175 -0.000276139 0)
(505.178 -0.000153625 0)
(505.181 -0.00012142 0)
(505.184 4.87443e-05 0)
(505.188 0.000402988 0)
(505.191 0.000590282 0)
(505.195 0.000619527 0)
(505.199 0.00052023 0)
(505.203 0.000233104 0)
(505.206 -5.89759e-05 0)
(505.207 -0.000192651 0)
(505.207 -0.000260909 0)
(505.206 -0.000297568 0)
(505.204 -0.000288459 0)
(505.201 -0.000270305 0)
(505.196 -0.000210203 0)
(505.189 -0.000133729 0)
(505.182 3.66074e-05 0)
(505.175 0.000254138 0)
(505.168 0.000312505 0)
(505.163 0.000242507 0)
(505.159 0.000153229 0)
(505.156 0.00010764 0)
(505.153 9.70893e-05 0)
(505.151 7.44676e-05 0)
(505.149 -2.89399e-05 0)
(505.147 -0.00020112 0)
(505.146 -0.000341498 0)
(505.144 -0.000292565 0)
(505.143 -0.000105454 0)
(505.141 6.21311e-05 0)
(505.139 0.000169663 0)
(505.136 0.000273104 0)
(505.133 0.000405308 0)
(505.13 0.000411012 0)
(505.126 0.000146573 0)
(505.12 -4.91729e-05 0)
(505.112 -5.99792e-05 0)
(505.102 -0.000269368 0)
(505.095 -0.000339196 0)
(505.094 -0.000457915 0)
(505.094 -0.000502767 0)
(505.096 -0.000405793 0)
(505.102 -0.000233587 0)
(505.114 -0.000107201 0)
(505.129 -8.13895e-05 0)
(505.144 0.000483365 0)
(505.158 0.000871182 0)
(505.168 0.00101884 0)
(505.174 0.00096681 0)
(505.179 0.000362489 0)
(505.183 -0.000198667 0)
(505.187 -0.000284604 0)
(505.191 -0.000300817 0)
(505.195 -0.000378661 0)
(505.198 -0.00067016 0)
(505.202 -0.00104925 0)
(505.206 -0.00118294 0)
(505.21 -0.000807926 0)
(505.213 4.07741e-05 0)
(505.214 0.000480309 0)
(505.214 0.000682463 0)
(505.214 0.000890346 0)
(505.213 0.00105925 0)
(505.211 0.00100057 0)
(505.207 0.000734865 0)
(505.202 0.000471308 0)
(505.194 0.000148501 0)
(505.186 -0.000196102 0)
(505.178 -0.000591455 0)
(505.171 -0.00109267 0)
(505.164 -0.00132921 0)
(505.159 -0.00113054 0)
(505.154 -0.00082323 0)
(505.15 -0.000464253 0)
(505.146 -1.77393e-05 0)
(505.143 0.000500075 0)
(505.14 0.00102619 0)
(505.139 0.0012377 0)
(505.138 0.000903978 0)
(505.136 0.000653154 0)
(505.132 0.000499118 0)
(505.128 0.000324888 0)
(505.124 1.184e-05 0)
(505.119 -0.000290271 0)
(505.111 -0.000634973 0)
(505.101 -0.000904059 0)
(505.088 -0.000903351 0)
(505.075 -0.000623977 0)
(505.069 -0.000403457 0)
(505.068 -0.000145198 0)
(505.071 -6.075e-06 0)
(505.079 0.000286736 0)
(505.095 0.000476152 0)
(505.115 0.000510462 0)
(505.138 0.00061743 0)
(505.157 0.00046204 0)
(505.169 0.000168476 0)
(505.177 5.30446e-05 0)
(505.182 -5.51013e-05 0)
(505.186 -0.000286932 0)
(505.188 -0.000341152 0)
(505.191 -9.60765e-05 0)
(505.196 0.000105441 0)
(505.202 0.00025605 0)
(505.207 0.000453139 0)
(505.212 0.00055361 0)
(505.219 0.000176522 0)
(505.225 -0.000451013 0)
(505.23 -0.000594858 0)
(505.232 -0.000608208 0)
(505.233 -0.000524578 0)
(500 -1.25378e-13 0)
(500 -1.1238e-13 0)
(500 -1.05853e-13 0)
(500 2.53945e-15 0)
(500 4.05459e-14 0)
(500 1.10094e-13 0)
(500 9.56995e-14 0)
(500 1.66146e-13 0)
(500 1.06662e-13 0)
(500 -4.11331e-14 0)
(500 -8.36842e-15 0)
(500 1.42203e-13 0)
(500 2.79066e-13 0)
(500 2.76088e-13 0)
(500 1.78543e-13 0)
(500 2.0233e-13 0)
(500 -1.52944e-12 0)
(500 4.75786e-12 0)
(500 -7.69129e-12 0)
(500 -7.66466e-11 0)
(500 7.43241e-10 0)
(500 -3.74953e-09 0)
(500 1.16859e-08 0)
(500 -1.72386e-08 0)
(499.999 -2.35227e-08 0)
(499.998 1.51168e-07 0)
(499.992 2.12052e-07 0)
(499.977 -4.3351e-06 0)
(499.937 2.17051e-05 0)
(499.842 -6.49401e-05 0)
(499.651 0.000119476 0)
(499.357 -0.000102947 0)
(499.12 -1.99141e-05 0)
(499.077 2.46061e-05 0)
(499.096 5.07761e-06 0)
(499.194 -0.000172616 0)
(499.429 0.00115849 0)
(499.825 -0.000849347 0)
(500.36 -0.00428841 0)
(500.977 0.00621418 0)
(501.626 0.00578323 0)
(502.26 -0.0123145 0)
(502.836 -0.00644817 0)
(503.328 0.0149851 0)
(503.741 0.0081716 0)
(504.067 -0.0109057 0)
(504.31 -0.0118993 0)
(504.494 0.00477908 0)
(504.635 0.0106211 0)
(504.755 0.00387382 0)
(504.857 -0.00524456 0)
(504.942 -0.00759288 0)
(505.017 -0.000872985 0)
(505.079 0.00557781 0)
(505.135 0.00429931 0)
(505.187 -0.000403842 0)
(505.232 -0.00391859 0)
(505.274 -0.00264484 0)
(505.304 0.00130329 0)
(505.317 0.00202485 0)
(505.318 0.00166762 0)
(505.318 -8.85464e-05 0)
(505.317 -0.0012389 0)
(505.313 -0.00115557 0)
(505.303 -0.000379393 0)
(505.288 0.0008096 0)
(505.269 0.00126403 0)
(505.246 6.99757e-05 0)
(505.225 -0.00125333 0)
(505.205 -0.000759638 0)
(505.188 0.000487971 0)
(505.175 0.000890458 0)
(505.164 0.000178475 0)
(505.155 -0.000785996 0)
(505.146 -0.000706479 0)
(505.139 -1.86014e-05 0)
(505.133 0.000498843 0)
(505.128 0.000488217 0)
(505.124 0.000203397 0)
(505.12 -0.0002063 0)
(505.118 -0.000218951 0)
(505.116 1.17685e-06 0)
(505.114 0.0001562 0)
(505.111 0.00013852 0)
(505.11 1.20915e-05 0)
(505.109 -0.000154423 0)
(505.109 -0.000189927 0)
(505.109 -0.000139218 0)
(505.11 -1.31133e-05 0)
(505.113 6.03331e-05 0)
(505.117 5.07606e-05 0)
(505.123 6.80389e-05 0)
(505.131 0.000150506 0)
(505.14 1.65454e-06 0)
(505.15 -1.60426e-05 0)
(505.159 0.000213344 0)
(505.168 0.000148055 0)
(505.176 -0.000238794 0)
(505.183 -0.000307702 0)
(505.189 3.8848e-05 0)
(505.194 0.000142226 0)
(505.2 -0.000117454 0)
(505.204 -0.000202905 0)
(505.205 -0.000190006 0)
(505.205 -5.05552e-05 0)
(505.204 9.70758e-05 0)
(505.203 0.000116485 0)
(505.201 6.99683e-05 0)
(505.197 9.61955e-06 0)
(505.191 -7.28759e-05 0)
(505.185 -1.13172e-05 0)
(505.177 0.000147697 0)
(505.171 0.000142815 0)
(505.165 3.79305e-05 0)
(505.161 -5.01155e-05 0)
(505.157 -4.09822e-05 0)
(505.154 -1.2382e-05 0)
(505.152 -1.1625e-06 0)
(505.149 9.80215e-06 0)
(505.147 2.9297e-05 0)
(505.145 4.93256e-05 0)
(505.143 3.98627e-05 0)
(505.141 -3.22567e-05 0)
(505.139 -6.8259e-05 0)
(505.137 -9.0771e-05 0)
(505.134 -8.77755e-05 0)
(505.129 -6.16131e-05 0)
(505.123 -3.12625e-05 0)
(505.115 -1.45086e-05 0)
(505.11 6.74762e-05 0)
(505.109 0.000126967 0)
(505.11 0.0001264 0)
(505.111 0.000125314 0)
(505.115 9.26093e-05 0)
(505.122 1.42933e-05 0)
(505.133 5.81474e-05 0)
(505.145 0.000146314 0)
(505.156 -8.37657e-05 0)
(505.163 -0.000354639 0)
(505.168 -0.000364764 0)
(505.172 -0.000240068 0)
(505.175 -0.000101721 0)
(505.179 -5.0203e-05 0)
(505.183 -3.91355e-05 0)
(505.188 2.72349e-06 0)
(505.193 0.000116528 0)
(505.198 0.000245823 0)
(505.201 0.000414081 0)
(505.202 0.000438451 0)
(505.202 0.000368227 0)
(505.202 0.000220201 0)
(505.201 -5.26992e-06 0)
(505.2 -0.000212361 0)
(505.197 -0.000319117 0)
(505.192 -0.00035504 0)
(505.186 -0.000336282 0)
(505.18 -0.000353641 0)
(505.173 -0.000408459 0)
(505.168 -0.000288948 0)
(505.163 1.01448e-05 0)
(505.159 0.000229752 0)
(505.156 0.000341693 0)
(505.153 0.000434993 0)
(505.151 0.000499113 0)
(505.149 0.000430489 0)
(505.147 0.000338121 0)
(505.146 0.000194257 0)
(505.144 -7.83981e-05 0)
(505.143 -0.000303477 0)
(505.141 -0.000451867 0)
(505.14 -0.000529153 0)
(505.138 -0.000480705 0)
(505.136 -0.000379473 0)
(505.133 -0.000220377 0)
(505.128 -9.19513e-05 0)
(505.122 -4.71036e-05 0)
(505.113 0.000255558 0)
(505.107 0.000494644 0)
(505.105 0.000607265 0)
(505.105 0.000586413 0)
(505.107 0.000432485 0)
(505.111 0.000163897 0)
(505.119 -0.000140795 0)
(505.13 -0.000114642 0)
(505.144 -0.000134843 0)
(505.157 -0.00052623 0)
(505.166 -0.000792848 0)
(505.172 -0.000719004 0)
(505.175 -0.00035556 0)
(505.178 -0.00012227 0)
(505.181 7.80252e-05 0)
(505.185 0.000365772 0)
(505.188 0.000563062 0)
(505.191 0.000681066 0)
(505.195 0.000701558 0)
(505.199 0.000477335 0)
(505.203 0.000145358 0)
(505.206 -0.000115059 0)
(505.207 -0.000256157 0)
(505.207 -0.000326603 0)
(505.206 -0.00041719 0)
(505.204 -0.00044535 0)
(505.201 -0.000421168 0)
(505.196 -0.000328998 0)
(505.19 -0.000175195 0)
(505.182 0.000104281 0)
(505.175 0.000442633 0)
(505.168 0.000541104 0)
(505.163 0.000451382 0)
(505.158 0.000319977 0)
(505.155 0.000104395 0)
(505.153 -5.65095e-06 0)
(505.151 -3.65819e-05 0)
(505.149 -0.000136836 0)
(505.147 -0.000303301 0)
(505.145 -0.000468575 0)
(505.144 -0.000482357 0)
(505.143 -0.00037737 0)
(505.141 -0.000156899 0)
(505.139 0.000122395 0)
(505.137 0.000366191 0)
(505.134 0.000589581 0)
(505.13 0.000679692 0)
(505.126 0.000531642 0)
(505.12 0.000184159 0)
(505.112 -7.44988e-05 0)
(505.102 -0.000395964 0)
(505.095 -0.000473542 0)
(505.094 -0.000562814 0)
(505.094 -0.000609526 0)
(505.096 -0.000511961 0)
(505.103 -0.000330898 0)
(505.114 -0.000235432 0)
(505.129 -0.000163959 0)
(505.145 0.000133925 0)
(505.158 0.000914606 0)
(505.168 0.00117219 0)
(505.174 0.00117844 0)
(505.178 0.000745876 0)
(505.183 5.06896e-06 0)
(505.186 -0.000281732 0)
(505.19 -0.000354581 0)
(505.194 -0.000512431 0)
(505.198 -0.00077777 0)
(505.202 -0.00103562 0)
(505.206 -0.00113223 0)
(505.211 -0.000956376 0)
(505.214 -0.000393407 0)
(505.215 0.000461341 0)
(505.215 0.00089256 0)
(505.214 0.0010475 0)
(505.213 0.00116981 0)
(505.21 0.00114131 0)
(505.207 0.000857257 0)
(505.201 0.000457976 0)
(505.194 9.01915e-05 0)
(505.186 -0.000222179 0)
(505.178 -0.000702449 0)
(505.17 -0.00117654 0)
(505.164 -0.00133321 0)
(505.159 -0.0013026 0)
(505.155 -0.000973222 0)
(505.151 -0.000433618 0)
(505.147 0.000124914 0)
(505.144 0.00070282 0)
(505.141 0.00123265 0)
(505.139 0.00145366 0)
(505.138 0.00111122 0)
(505.135 0.00071843 0)
(505.132 0.000513906 0)
(505.128 0.000323826 0)
(505.124 -6.78284e-05 0)
(505.118 -0.000652572 0)
(505.111 -0.00101382 0)
(505.101 -0.00116482 0)
(505.088 -0.00118913 0)
(505.075 -0.000858907 0)
(505.069 -0.00056064 0)
(505.069 -7.99138e-05 0)
(505.072 0.000228657 0)
(505.08 0.000646714 0)
(505.095 0.0006438 0)
(505.115 0.000618401 0)
(505.137 0.000641539 0)
(505.156 0.000296612 0)
(505.169 -0.000185355 0)
(505.177 -0.000386363 0)
(505.182 -0.000528261 0)
(505.185 -0.000744749 0)
(505.189 -0.000774296 0)
(505.192 -0.000374856 0)
(505.197 4.81911e-05 0)
(505.202 0.000356388 0)
(505.207 0.000723557 0)
(505.212 0.00101325 0)
(505.218 0.000880958 0)
(505.225 -3.23878e-05 0)
(505.229 -0.000630833 0)
(505.232 -0.000851523 0)
(505.233 -0.000811772 0)
(500 8.20536e-15 0)
(500 -5.34023e-14 0)
(500 1.83388e-14 0)
(500 1.57527e-13 0)
(500 1.80593e-13 0)
(500 1.42927e-13 0)
(500 2.13792e-13 0)
(500 2.50077e-13 0)
(500 2.31774e-13 0)
(500 9.83917e-14 0)
(500 5.46619e-14 0)
(500 5.64647e-14 0)
(500 2.31249e-13 0)
(500 1.43801e-13 0)
(500 5.41113e-14 0)
(500 1.4905e-14 0)
(500 -1.72778e-12 0)
(500 5.14712e-12 0)
(500 -5.90803e-12 0)
(500 -1.06293e-10 0)
(500 9.37562e-10 0)
(500 -4.54875e-09 0)