/*--------------------------------*- C++ -*----------------------------------*\
| =========                 |                                                 |
| \\      /  F ield         | OpenFOAM: The Open Source CFD Toolbox           |
|  \\    /   O peration     | Version:  2306                                  |
|   \\  /    A nd           | Website:  www.openfoam.com                      |
|    \\/     M anipulation  |                                                 |
\*---------------------------------------------------------------------------*/
FoamFile
{
    version     2.0;
    format      ascii;
    arch        "LSB;label=32;scalar=64";
    class       volScalarField;
    location    "0.15";
    object      rho;
}
// * * * * * * * * * * * * * * * * * * * * * * * * * * * * * * * * * * * * * //

dimensions      [1 -3 0 0 0 0 0];

internalField   nonuniform List<scalar> 
6000
(
43.7137
1.78597
0.244767
0.240148
0.200142
0.159505
0.151643
0.154631
0.162685
0.175629
0.190387
0.205038
0.218943
0.233261
0.24992
0.267559
0.279297
0.282425
0.281202
0.278845
0.276458
0.268017
0.225911
0.17333
0.166745
0.167629
0.172557
0.178532
0.184203
0.190122
0.196634
0.203196
0.20953
0.215142
0.219886
0.223888
0.227674
0.232362
0.239402
0.249728
0.257882
0.259088
0.254637
0.227793
0.185049
0.176048
0.176845
0.180268
0.184779
0.188089
0.190385
0.192578
0.195282
0.198675
0.202429
0.206083
0.209085
0.211296
0.212965
0.214846
0.218022
0.22398
0.229911
0.229249
0.225607
0.209646
0.184849
0.178279
0.179993
0.180921
0.18238
0.182927
0.182981
0.183969
0.186515
0.1904
0.194716
0.198142
0.199892
0.200562
0.200795
0.201227
0.202463
0.205104
0.209511
0.212363
0.21091
0.206724
0.18962
0.175778
0.174578
0.174799
0.176221
0.177443
0.177717
0.178049
0.179539
0.182169
0.185464
0.188326
0.190251
0.191235
0.191552
0.191717
0.192234
0.193519
0.196691
0.200749
0.201234
0.200304
0.193395
0.178824
0.172815
0.173013
0.173912
0.176059
0.178028
0.1789
0.179449
0.180391
0.182018
0.184185
0.186426
0.188165
0.188982
0.189196
0.189355
0.190089
0.192278
0.196239
0.198116
0.198385
0.196356
0.18725
0.176945
0.174973
0.174791
0.175743
0.177898
0.179749
0.180625
0.181092
0.181548
0.182037
0.182741
0.183838
0.185151
0.186043
0.186312
0.18633
0.186515
0.18754
0.189533
0.190764
0.190149
0.188187
0.181214
0.170327
0.166597
0.166407
0.166777
0.16836
0.17039
0.171207
0.171185
0.171051
0.170903
0.170692
0.170578
0.170726
0.17111
0.171311
0.171284
0.171283
0.171682
0.1728
0.173776
0.173345
0.172001
0.167808
0.15946
0.154305
0.153619
0.153614
0.15454
0.156158
0.1572
0.157555
0.157785
0.158096
0.158595
0.159419
0.16064
0.162086
0.163191
0.163616
0.163683
0.163685
0.163795
0.164389
0.165477
0.166094
0.165651
0.16389
0.158297
0.151057
0.148555
0.148005
0.148073
0.148586
0.148882
0.148489
0.147835
0.147009
0.146276
0.145755
0.145357
0.145395
0.146118
0.147471
0.148417
0.148632
0.148633
0.14871
0.149163
0.150041
0.150437
0.15057
0.150068
0.14685
0.143079
0.14251
0.143685
0.145775
0.149115
0.153185
0.156417
0.158777
0.161072
0.16348
0.16607
0.16886
0.171765
0.174712
0.177636
0.180471
0.18326
0.186173
0.189023
0.190372
0.190718
0.188979
0.182579
0.176623
0.176031
0.177549
0.181064
0.186661
0.192303
0.196342
0.200251
0.204921
0.210585
0.217716
0.226489
0.236907
0.249289
0.264437
0.283433
0.305284
0.323702
0.336202
0.337502
0.332814
0.342403
0.360365
0.383064
0.402819
0.419021
0.433182
0.446095
0.458101
0.471578
0.488718
0.500149
0.499507
0.494355
0.482066
0.465588
0.459983
0.466719
0.493544
0.554511
0.671038
0.855771
1.10351
1.38223
1.54132
1.57783
1.54103
43.7042
1.78764
0.245898
0.241325
0.200898
0.160284
0.152997
0.156122
0.163784
0.176133
0.190272
0.204493
0.218241
0.232482
0.24929
0.267251
0.279625
0.282982
0.282073
0.279949
0.277325
0.268405
0.22679
0.173812
0.1669
0.168319
0.173568
0.179867
0.185656
0.191175
0.196854
0.202697
0.208485
0.214034
0.219004
0.223362
0.227396
0.232168
0.239396
0.250107
0.258506
0.25947
0.254772
0.227637
0.184741
0.175839
0.176975
0.180633
0.185259
0.18857
0.190735
0.192668
0.195128
0.198355
0.202143
0.20597
0.209109
0.211327
0.212884
0.21458
0.217537
0.223354
0.229559
0.2292
0.225738
0.209886
0.184579
0.177808
0.179504
0.180645
0.182342
0.1831
0.1833
0.184327
0.186798
0.190512
0.194586
0.197933
0.199874
0.200753
0.201188
0.201736
0.202999
0.205709
0.210139
0.213044
0.211731
0.207522
0.190337
0.176164
0.174823
0.174955
0.176328
0.177659
0.17809
0.178502
0.179944
0.182548
0.185831
0.188712
0.190637
0.191592
0.191862
0.191971
0.192461
0.193771
0.197013
0.201103
0.201627
0.200733
0.193754
0.179197
0.173261
0.173368
0.174057
0.176027
0.177838
0.178616
0.179143
0.180086
0.181696
0.183783
0.185937
0.187622
0.188478
0.188753
0.188962
0.1897
0.191833
0.195641
0.197406
0.197566
0.195386
0.186093
0.175708
0.173767
0.173604
0.174503
0.176623
0.178509
0.179445
0.179957
0.180463
0.180976
0.181693
0.182807
0.184139
0.185042
0.185331
0.185378
0.18558
0.186607
0.188612
0.189822
0.189272
0.187401
0.180626
0.169947
0.166271
0.16611
0.166447
0.16799
0.170019
0.170875
0.170866
0.170788
0.170747
0.170655
0.170775
0.171264
0.171796
0.171978
0.171933
0.17193
0.172333
0.17344
0.174384
0.173926
0.172539
0.168273
0.159829
0.154652
0.153959
0.153975
0.154946
0.156629
0.157672
0.157939
0.158067
0.158246
0.15859
0.159226
0.160303
0.161789
0.163109
0.163671
0.163742
0.163696
0.163742
0.164255
0.165221
0.165703
0.165223
0.163423
0.157832
0.150696
0.14833
0.147856
0.148034
0.148764
0.149241
0.148949
0.148279
0.147352
0.14659
0.146047
0.145685
0.145742
0.146406
0.147665
0.148634
0.148917
0.148953
0.149044
0.149497
0.15039
0.150794
0.150936
0.150454
0.147257
0.143469
0.142916
0.144061
0.146116
0.149428
0.153406
0.156533
0.158819
0.160962
0.163279
0.165702
0.168307
0.171092
0.174018
0.176938
0.179692
0.182317
0.185083
0.187919
0.189587
0.190174
0.188917
0.183418
0.177559
0.176743
0.178219
0.181686
0.18724
0.192747
0.196445
0.200033
0.20446
0.210087
0.217386
0.226358
0.23686
0.249147
0.263662
0.281372
0.30176
0.319557
0.331733
0.333927
0.330125
0.340651
0.36064
0.386722
0.409065
0.425763
0.439844
0.452431
0.464473
0.478918
0.496414
0.506567
0.505014
0.498878
0.485285
0.467996
0.463651
0.470587
0.495485
0.554772
0.669849
0.854314
1.10367
1.38372
1.53322
1.56476
1.5343
43.6855
1.79052
0.247208
0.242498
0.201833
0.16184
0.15518
0.158156
0.164984
0.176406
0.189709
0.2036
0.217554
0.232122
0.24864
0.266693
0.280164
0.283804
0.283161
0.281061
0.277648
0.268127
0.227926
0.174739
0.167283
0.169615
0.175498
0.182131
0.187587
0.19208
0.196522
0.201449
0.206983
0.212806
0.218266
0.223047
0.227323
0.231941
0.238932
0.249952
0.258882
0.259554
0.254464
0.226894
0.184092
0.175558
0.177314
0.181363
0.186147
0.189272
0.190989
0.192452
0.194606
0.197795
0.201772
0.205844
0.209129
0.211348
0.212754
0.214154
0.216801
0.222473
0.229163
0.229355
0.226168
0.210416
0.184272
0.177207
0.178805
0.18034
0.182397
0.183497
0.18396
0.184947
0.187138
0.190472
0.194279
0.197635
0.19993
0.20115
0.201831
0.202461
0.203704
0.206521
0.21115
0.21393
0.212767
0.208385
0.191155
0.176522
0.175013
0.175182
0.176552
0.178077
0.1787
0.179205
0.180565
0.183039
0.186245
0.189071
0.190987
0.191952
0.192203
0.192249
0.192701
0.194087
0.197553
0.201762
0.202307
0.201469
0.19437
0.17974
0.173815
0.173697
0.174163
0.175882
0.177503
0.178192
0.178759
0.179719
0.181286
0.183213
0.185182
0.186757
0.18763
0.187976
0.188292
0.189072
0.191162
0.194753
0.196364
0.196333
0.193954
0.184469
0.174015
0.172184
0.172091
0.172969
0.175063
0.177003
0.178012
0.178552
0.179087
0.179628
0.180377
0.18153
0.182907
0.183835
0.184149
0.184227
0.18445
0.185487
0.187522
0.188714
0.188229
0.186427
0.179871
0.169474
0.165818
0.16565
0.165931
0.167395
0.169383
0.170288
0.170374
0.170395
0.170485
0.170586
0.170962
0.171709
0.172475
0.172759
0.172741
0.172765
0.173217
0.174359
0.175274
0.174785
0.173347
0.168986
0.160407
0.155171
0.154469
0.154519
0.155539
0.157296
0.158392
0.158548
0.158542
0.158561
0.158715
0.159102
0.15993
0.161349
0.16287
0.163618
0.163747
0.163708
0.163736
0.164188
0.165
0.165294
0.16471
0.16274
0.157058
0.15014
0.148006
0.147646
0.147955
0.149001
0.149711
0.149504
0.148878
0.1479
0.147081
0.146566
0.146292
0.146367
0.146932
0.147988
0.148852
0.149123
0.149159
0.149256
0.149737
0.150655
0.151033
0.151162
0.150648
0.147387
0.143604
0.143135
0.144285
0.146429
0.149828
0.153746
0.156695
0.158885
0.160791
0.162812
0.165013
0.167445
0.170122
0.172996
0.175886
0.178502
0.1808
0.183183
0.185942
0.188255
0.189174
0.188614
0.184167
0.178592
0.177647
0.179244
0.182725
0.188224
0.193394
0.196717
0.199818
0.203527
0.208628
0.215421
0.224489
0.235652
0.248145
0.261965
0.277572
0.294868
0.31016
0.32115
0.325255
0.323493
0.334662
0.356847
0.388745
0.421446
0.444212
0.461733
0.475134
0.48725
0.503651
0.522338
0.530444
0.526241
0.516343
0.498094
0.478139
0.47418
0.480542
0.502759
0.558306
0.667753
0.847632
1.0953
1.37686
1.51337
1.53341
1.50544
43.6647
1.79134
0.248655
0.244109
0.203786
0.164492
0.157792
0.160673
0.166514
0.176677
0.188891
0.202193
0.216211
0.231088
0.24768
0.26586
0.280518
0.284578
0.284233
0.282139
0.277846
0.268221
0.229807
0.176055
0.167755
0.171354
0.177914
0.184656
0.189472
0.192869
0.196135
0.200128
0.205257
0.211236
0.217323
0.222639
0.227349
0.232033
0.238757
0.249664
0.259223
0.259702
0.254082
0.226059
0.183204
0.175198
0.177617
0.182311
0.187272
0.190112
0.191247
0.19218
0.193874
0.196867
0.200945
0.205278
0.208855
0.211131
0.212506
0.21366
0.215951
0.221397
0.228513
0.229355
0.226579
0.2112
0.184074
0.176477
0.177937
0.179893
0.182456
0.18397
0.184694
0.185657
0.187534
0.190424
0.19388
0.197212
0.199831
0.201473
0.202421
0.203169
0.204441
0.207371
0.212305
0.215075
0.214105
0.209615
0.19241
0.177177
0.175479
0.175649
0.176999
0.178694
0.179533
0.18014
0.181438
0.183764
0.186779
0.189496
0.191399
0.192385
0.192653
0.192686
0.193158
0.194668
0.198388
0.202659
0.203258
0.202539
0.195149
0.180304
0.17435
0.173965
0.17424
0.175731
0.177197
0.177837
0.178501
0.179481
0.181013
0.182765
0.184594
0.186138
0.187056
0.187473
0.187844
0.188634
0.190653
0.193951
0.195296
0.19499
0.192245
0.182399
0.171749
0.169904
0.169824
0.170658
0.172692
0.174677
0.175778
0.176388
0.176984
0.17759
0.178428
0.179691
0.181174
0.182169
0.182514
0.182615
0.182844
0.183839
0.185838
0.187047
0.186638
0.185002
0.178785
0.168733
0.165071
0.164941
0.165177
0.166601
0.168583
0.169601
0.169869
0.17004
0.170257
0.170526
0.171052
0.172001
0.173034
0.173536
0.17364
0.173762
0.174326
0.175546
0.176452
0.175962
0.174484
0.170044
0.161315
0.156003
0.155293
0.155373
0.156428
0.158214
0.15923
0.159291
0.159136
0.15897
0.158918
0.159093
0.159684
0.160956
0.162584
0.163543
0.163727
0.163677
0.163685
0.164079
0.164742
0.164838
0.164127
0.162018
0.156337
0.149755
0.14785
0.147597
0.147991
0.149247
0.150146
0.150054
0.149539
0.148709
0.14799
0.147533
0.147311
0.147359
0.147784
0.148595
0.149328
0.149634
0.149708
0.14983
0.150371
0.151343
0.151702
0.151815
0.151225
0.147796
0.143945
0.143527
0.144635
0.146787
0.150226
0.154042
0.156632
0.158574
0.16022
0.162007
0.164049
0.166292
0.168791
0.17154
0.174313
0.176755
0.178858
0.181078
0.183882
0.186831
0.188061
0.188103
0.184497
0.179233
0.178187
0.179952
0.183647
0.189312
0.194221
0.197235
0.199852
0.202781
0.207291
0.213241
0.221504
0.232213
0.244413
0.256928
0.269792
0.283385
0.295901
0.305587
0.311976
0.312783
0.324048
0.348538
0.386444
0.43278
0.469472
0.495173
0.512672
0.526065
0.546689
0.567773
0.572501
0.564878
0.547278
0.51915
0.496618
0.492315
0.498166
0.517385
0.566213
0.667079
0.837341
1.07504
1.3424
1.46735
1.47921
1.45188
43.666
1.78821
0.24913
0.245498
0.206981
0.167776
0.160335
0.163216
0.167983
0.176889
0.187906
0.200386
0.214213
0.229545
0.246523
0.265136
0.280836
0.285429
0.285219
0.283379
0.27834
0.268684
0.232305
0.177648
0.168418
0.173018
0.180143
0.186767
0.190938
0.19352
0.195896
0.199072
0.203581
0.209391
0.215931
0.222152
0.227537
0.232518
0.239021
0.249589
0.25956
0.259896
0.253637
0.224674
0.181871
0.174605
0.177705
0.18324
0.188412
0.190897
0.191473
0.191889
0.193016
0.195578
0.199539
0.204056
0.208099
0.210745
0.212241
0.213187
0.215148
0.220288
0.227715
0.229288
0.226978
0.21228
0.184199
0.175845
0.1771
0.179441
0.182526
0.184456
0.185434
0.186348
0.187885
0.190308
0.193403
0.196646
0.199504
0.201477
0.20263
0.203433
0.204717
0.207795
0.213118
0.216017
0.215377
0.210924
0.194013
0.178063
0.176132
0.176305
0.177567
0.1794
0.180512
0.181245
0.182463
0.18456
0.187305
0.189873
0.191759
0.192809
0.193118
0.193163
0.193673
0.19537
0.199369
0.203632
0.204343
0.203591
0.195808
0.180716
0.174787
0.174186
0.174229
0.175476
0.176894
0.177665
0.178465
0.179512
0.181021
0.182572
0.1842
0.185611
0.18649
0.186902
0.187291
0.188077
0.190056
0.193096
0.194217
0.193712
0.190724
0.180669
0.169918
0.167946
0.167782
0.168511
0.170427
0.172396
0.17355
0.174204
0.174822
0.175456
0.176361
0.177725
0.179321
0.180413
0.180815
0.180967
0.181224
0.182178
0.184159
0.185441
0.185104
0.18363
0.177769
0.167974
0.164263
0.164152
0.16438
0.165741
0.167713
0.168857
0.169264
0.169534
0.169907
0.170375
0.171082
0.172161
0.173326
0.174013
0.174263
0.174498
0.175167
0.176499
0.177494
0.177092
0.17571
0.171335
0.162518
0.157124
0.156417
0.156511
0.157565
0.159314
0.160158
0.160115
0.159797
0.159395
0.159151
0.159175
0.159597
0.160731
0.162354
0.163433
0.163675
0.16363
0.163621
0.163967
0.164525
0.164495
0.163695
0.16151
0.155868
0.14951
0.147737
0.147541
0.14795
0.149317
0.150479
0.150572
0.150211
0.14961
0.149081
0.148741
0.148578
0.14861
0.148911
0.149506
0.150074
0.150349
0.150445
0.150617
0.151233
0.152272
0.152609
0.152661
0.15198
0.148316
0.144307
0.143911
0.144909
0.146992
0.150369
0.153885
0.156106
0.157834
0.159245
0.160836
0.162734
0.164818
0.167163
0.169839
0.172611
0.175042
0.177151
0.179362
0.182175
0.185361
0.186776
0.187157
0.184198
0.179273
0.178161
0.18002
0.183897
0.189833
0.194899
0.197839
0.200065
0.20221
0.206011
0.211171
0.218269
0.227766
0.238545
0.248673
0.258119
0.267996
0.27838
0.287145
0.295003
0.299369
0.309633
0.335488
0.378375
0.435967
0.491043
0.529505
0.554603
0.5718
0.597159
0.620979
0.622397
0.61178
0.585549
0.548296
0.52443
0.517448
0.523693
0.540229
0.580586
0.667929
0.820503
1.037
1.2683
1.37696
1.39021
1.36967
43.6784
1.7821
0.248872
0.24622
0.210142
0.170809
0.162467
0.165164
0.169181
0.177028
0.186961
0.198467
0.211746
0.227206
0.244827
0.264489
0.281149
0.286673
0.286405
0.284152
0.278948
0.269415
0.234798
0.179458
0.169313
0.174149
0.18164
0.188261
0.192082
0.194172
0.196007
0.198543
0.202301
0.207658
0.214412
0.221458
0.227754
0.233315
0.239778
0.249893
0.259982
0.259991
0.252917
0.222555
0.180083
0.173761
0.177431
0.183701
0.189117
0.191389
0.191615
0.1916
0.192199
0.194082
0.197598
0.202136
0.206777
0.210176
0.211961
0.212896
0.21457
0.219347
0.226972
0.22918
0.227292
0.213548
0.184798
0.175451
0.176423
0.179041
0.182676
0.185036
0.186127
0.186919
0.188127
0.190134
0.192881
0.195977
0.198932
0.201171
0.202487
0.203319
0.204525
0.207595
0.2132
0.216402
0.216094
0.211881
0.195689
0.179042
0.176745
0.177019
0.178317
0.180302
0.181638
0.182441
0.183514
0.18531
0.18771
0.190138
0.192021
0.193134
0.193523
0.193659
0.194255
0.196167
0.200407
0.204474
0.205294
0.204254
0.196163
0.180901
0.17497
0.174307
0.174201
0.175286
0.17672
0.177637
0.178581
0.179741
0.181197
0.18255
0.18398
0.185326
0.186183
0.186569
0.186938
0.187721
0.189669
0.192467
0.193365
0.192721
0.18951
0.179219
0.168466
0.166429
0.166202
0.166883
0.168706
0.170653
0.171835
0.172514
0.173137
0.173772
0.17469
0.176092
0.177753
0.178916
0.179396
0.179631
0.179968
0.180942
0.182926
0.184294
0.183993
0.18266
0.177121
0.167473
0.163655
0.163515
0.163702
0.164978
0.166919
0.168134
0.168622
0.168946
0.169399
0.169958
0.170788
0.171999
0.173319
0.174193
0.174606
0.174963
0.175711
0.177127
0.17819
0.177871
0.176633
0.172448
0.163695
0.158244
0.157543
0.157642
0.158662
0.160271
0.16092
0.160793
0.160347
0.159789
0.159443
0.159358
0.159698
0.160704
0.162251
0.163331
0.163592
0.163548
0.163536
0.163881
0.164416
0.16434
0.163501
0.161285
0.155673
0.149491
0.147825
0.14767
0.148104
0.149522
0.150931
0.15122
0.15101
0.15062
0.150265
0.15004
0.149949
0.149999
0.150226
0.150661
0.151109
0.151338
0.151423
0.151615
0.152288
0.153346
0.153644
0.153605
0.152684
0.148496
0.144345
0.144007
0.144892
0.14691
0.150146
0.153255
0.155053
0.156448
0.15761
0.159029
0.160755
0.162708
0.165013
0.16778
0.170772
0.173465
0.175697
0.177898
0.180699
0.184101
0.185683
0.186212
0.183584
0.178971
0.177883
0.179796
0.183802
0.18992
0.195208
0.198158
0.20033
0.201946
0.204846
0.209104
0.214919
0.222612
0.231106
0.238514
0.244971
0.252032
0.260653
0.269077
0.276995
0.284527
0.294517
0.32089
0.364925
0.430436
0.503276
0.55498
0.588381
0.611229
0.641023
0.664149
0.663365
0.649436
0.615691
0.578651
0.559149
0.549746
0.554959
0.569987
0.600414
0.669346
0.794326
0.97511
1.15259
1.24216
1.2627
1.25809
43.7098
1.7755
0.248228
0.246089
0.212145
0.172792
0.163605
0.166071
0.169973
0.177233
0.186502
0.19728
0.209626
0.224671
0.242728
0.263618
0.281654
0.288256
0.287638
0.285043
0.279999
0.270664
0.23713
0.181099
0.170037
0.174682
0.182177
0.188941
0.192869
0.194886
0.196515
0.198651
0.201794
0.206495
0.213051
0.220655
0.227952
0.234296
0.240806
0.2503
0.259953
0.259546
0.251763
0.21995
0.178228
0.172812
0.176927
0.183688
0.18921
0.191468
0.19158
0.191324
0.191504
0.192788
0.195655
0.199995
0.2051
0.209422
0.211727
0.212893
0.214371
0.21879
0.226536
0.229259
0.227649
0.2149
0.185943
0.175391
0.176113
0.178809
0.182751
0.185494
0.186701
0.18735
0.188287
0.189951
0.192391
0.195313
0.1982
0.200491
0.201913
0.202758
0.203893
0.206861
0.212544
0.216079
0.216113
0.21226
0.197186
0.17996
0.177105
0.177489
0.178866
0.181061
0.182628
0.183502
0.184443
0.18595
0.188044
0.190302
0.192184
0.193376
0.193861
0.194106
0.194815
0.196953
0.201379
0.205155
0.205928
0.204459
0.196175
0.180765
0.1749
0.174287
0.174218
0.175264
0.176815
0.177942
0.178937
0.180065
0.181408
0.182695
0.184053
0.185362
0.186177
0.186522
0.186858
0.187644
0.189572
0.192217
0.192957
0.192237
0.188844
0.178382
0.167677
0.165592
0.165287
0.165904
0.167643
0.169558
0.170741
0.171432
0.172048
0.172673
0.173599
0.175048
0.176794
0.178055
0.178632
0.178946
0.179345
0.180305
0.182246
0.183678
0.183388
0.182123
0.176815
0.167213
0.163219
0.163022
0.16317
0.164359
0.166261
0.16752
0.168038
0.168355
0.16879
0.169336
0.170164
0.171409
0.172837
0.173878
0.174429
0.174888
0.175714
0.177234
0.178448
0.178262
0.177213
0.173212
0.164618
0.159228
0.158609
0.158779
0.159841
0.161402
0.161908
0.16168
0.161102
0.160417
0.159946
0.159708
0.159936
0.160839
0.162281
0.163293
0.163537
0.163482
0.163474
0.163857
0.164424
0.164348
0.163495
0.161279
0.155715
0.149655
0.148066
0.147941
0.148425
0.149885
0.151456
0.151928
0.151841
0.151601
0.151346
0.151193
0.151179
0.151292
0.151551
0.151913
0.152253
0.152449
0.152541
0.152735
0.15342
0.154402
0.154582
0.154365
0.153015
0.148246
0.14407
0.143823
0.144598
0.146513
0.149552
0.152092
0.153508
0.154545
0.15553
0.156854
0.158481
0.160399
0.16283
0.165839
0.169056
0.171856
0.174105
0.176266
0.179034
0.182604
0.184533
0.185333
0.183084
0.178659
0.177491
0.179476
0.18359
0.189719
0.194935
0.197849
0.200058
0.201539
0.203941
0.207362
0.211809
0.217484
0.223429
0.228525
0.233226
0.238706
0.24591
0.254017
0.261382
0.270509
0.281764
0.307324
0.352458
0.421478
0.505258
0.569658
0.610437
0.637439
0.667558
0.684546
0.683386
0.667029
0.6326
0.606722
0.594764
0.586637
0.589453
0.601296
0.623799
0.673938
0.764677
0.899971
1.01875
1.08784
1.11539
1.12721
43.7368
1.77075
0.248192
0.245974
0.213098
0.173406
0.163577
0.165916
0.170291
0.177439
0.18646
0.196849
0.208624
0.223036
0.241296
0.263384
0.28259
0.290013
0.289147
0.286296
0.281476
0.272239
0.238705
0.182104
0.170448
0.174733
0.181996
0.188828
0.193002
0.195474
0.197351
0.199371
0.202103
0.206074
0.21203
0.219855
0.227894
0.235104
0.241764
0.250468
0.259475
0.258529
0.250455
0.217188
0.176646
0.171961
0.176077
0.183046
0.188739
0.19112
0.191312
0.191059
0.191102
0.191933
0.194173
0.198139
0.20338
0.208453
0.211587
0.213204
0.214575
0.218609
0.226427
0.229548
0.228182
0.216301
0.187499
0.175678
0.176171
0.178838
0.18299
0.18603
0.18732
0.187811
0.188478
0.189849
0.19204
0.194743
0.197433
0.199559
0.200882
0.20166
0.202708
0.205571
0.211196
0.215186
0.21564
0.212193
0.198266
0.180675
0.177195
0.177613
0.17909
0.181508
0.183318
0.184279
0.185172
0.186498
0.188345
0.190446
0.192322
0.193572
0.194152
0.194501
0.19531
0.197654
0.202181
0.205627
0.206163
0.204293
0.195877
0.18047
0.17462
0.174222
0.174323
0.175497
0.177212
0.178499
0.179495
0.180542
0.181801
0.183075
0.184432
0.185739
0.186506
0.186761
0.187022
0.187784
0.189688
0.192249
0.19291
0.192149
0.188669
0.178162
0.167512
0.165377
0.165017
0.165571
0.167229
0.169123
0.170308
0.17099
0.171585
0.172183
0.173091
0.174554
0.176363
0.177728
0.178389
0.178761
0.179197
0.180115
0.181981
0.183433
0.183132
0.181856
0.176752
0.16718
0.162911
0.162622
0.162748
0.163856
0.165715
0.167008
0.167527
0.16782
0.168189
0.168683
0.169444
0.170633
0.172069
0.173203
0.173893
0.174489
0.175448
0.177093
0.178407
0.178384
0.177503
0.173672
0.16523
0.159969
0.159443
0.15965
0.160742
0.162324
0.162824
0.16257
0.161949
0.161227
0.160689
0.160363
0.160495
0.161208
0.162401
0.163302
0.163534
0.163488
0.163495
0.163929
0.164555
0.164503
0.163674
0.161491
0.156007
0.150054
0.148521
0.14841
0.14894
0.150443
0.152079
0.152632
0.152594
0.152425
0.152222
0.15208
0.152102
0.15231
0.152681
0.153089
0.15338
0.153493
0.153536
0.153741
0.154438
0.155324
0.155349
0.154907
0.153067
0.147621
0.14351
0.143332
0.143976
0.145714
0.148317
0.150373
0.151518
0.152378
0.153358
0.154739
0.156358
0.158322
0.160793
0.16385
0.167126
0.169948
0.172165
0.174314
0.177091
0.180855
0.183336
0.184548
0.182877
0.178665
0.177047
0.178995
0.182929
0.189029
0.194187
0.197006
0.199194
0.200697
0.202987
0.205935
0.209412
0.213214
0.217131
0.221082
0.225132
0.229771
0.235885
0.243425
0.250609
0.260012
0.272621
0.297171
0.34262
0.412438
0.501044
0.575596
0.621364
0.649661
0.675134
0.686448
0.68481
0.669194
0.643143
0.63032
0.626678
0.624181
0.624062
0.632028
0.649866
0.682929
0.74434
0.833624
0.905548
0.954479
0.984865
1.00293
43.7456
1.76732
0.249441
0.246821
0.213892
0.172914
0.162398
0.164685
0.170086
0.177598
0.186808
0.196994
0.208296
0.222163
0.240328
0.26328
0.283461
0.291763
0.291081
0.287858
0.282943
0.273493
0.239393
0.182311
0.17048
0.174112
0.180988
0.188167
0.193024
0.19614
0.198451
0.200538
0.202896
0.206216
0.211451
0.219025
0.227578
0.235626
0.242486
0.250399
0.258683
0.257303
0.249073
0.214768
0.175748
0.171613
0.175296
0.181788
0.187506
0.190294
0.190979
0.190978
0.191071
0.191636
0.193402
0.196914
0.201941
0.207389
0.211437
0.213642
0.215071
0.218752
0.226666
0.230123
0.228996
0.217774
0.189221
0.176387
0.176583
0.179192
0.183467
0.186636
0.187956
0.188351
0.188825
0.189975
0.191934
0.194395
0.196802
0.198628
0.199676
0.200278
0.201218
0.203946
0.209442
0.213914
0.214735
0.211684
0.198745
0.181027
0.177107
0.177504
0.178997
0.181585
0.183644
0.184787
0.185681
0.186874
0.188564
0.190579
0.192473
0.19378
0.194421
0.194827
0.195725
0.198237
0.202774
0.205927
0.206077
0.203903
0.195493
0.180274
0.174318
0.174164
0.17452
0.175923
0.177843
0.179254
0.180192
0.18109
0.182245
0.183577
0.185008
0.186361
0.187067
0.187206
0.187376
0.188121
0.190046
0.192618
0.193245
0.192436
0.188954
0.178474
0.167796
0.1656
0.165215
0.165737
0.167355
0.16925
0.170435
0.171086
0.171626
0.172177
0.173033
0.174463
0.176286
0.177721
0.178441
0.178852
0.179317
0.180188
0.181963
0.183409
0.183093
0.181809
0.176865
0.167332
0.162752
0.162356
0.162455
0.163502
0.165324
0.166638
0.16713
0.167368
0.167629
0.168006
0.168669
0.169781
0.17118
0.172367
0.173175
0.173932
0.175054
0.176837
0.178189
0.178235
0.17751
0.173831
0.165511
0.160406
0.159938
0.160146
0.161184
0.162814
0.163446
0.16325
0.162702
0.162092
0.161589
0.161291
0.161345
0.161861
0.162782
0.163438
0.163604
0.163599
0.163679
0.164183
0.164865
0.164839
0.164059
0.161922
0.15649
0.150599
0.149101
0.148983
0.149537
0.151055
0.15271
0.153272
0.153234
0.15305
0.152837
0.152689
0.152745
0.153006
0.153462
0.153958
0.154305
0.154458
0.154544
0.154804
0.155483
0.156181
0.15601
0.15532
0.152844
0.146629
0.14267
0.142496
0.143002
0.144432
0.146567
0.148465
0.149559
0.15047
0.151545
0.152811
0.154316
0.156207
0.158674
0.161705
0.164874
0.167576
0.169786
0.171961
0.17482
0.178761
0.181987
0.183669
0.182754
0.178848
0.176678
0.178469
0.182161
0.187921
0.193096
0.195982
0.198119
0.19955
0.201718
0.204315
0.207177
0.210118
0.213437
0.217212
0.220982
0.224964
0.230221
0.237212
0.244421
0.25375
0.267135
0.290749
0.335865
0.405277
0.495306
0.576387
0.626004
0.654649
0.674611
0.682533
0.681014
0.670065
0.652892
0.647156
0.650851
0.655505
0.659762
0.665115
0.677002
0.698494
0.736976
0.792184
0.833276
0.866155
0.897253
0.914096
43.7431
1.76461
0.251393
0.248356
0.214487
0.171587
0.160383
0.16272
0.169406
0.177655
0.187352
0.197502
0.208378
0.2218
0.239545
0.263055
0.284165
0.293197
0.29288
0.28944
0.284134
0.274372
0.239418
0.181885
0.169958
0.172704
0.179393
0.18714
0.192992
0.196929
0.199698
0.201919
0.20409
0.20686
0.211345
0.218327
0.227096
0.235976
0.242971
0.250169
0.257655
0.255794
0.24759
0.213159
0.175564
0.171846
0.1747
0.180405
0.18587
0.189192
0.190611
0.191092
0.191402
0.191965
0.193406
0.196529
0.20128
0.206647
0.211158
0.21387
0.215619
0.219234
0.227294
0.230997
0.23017
0.219331
0.190872
0.177443
0.177292
0.179705
0.183896
0.187128
0.188513
0.1889
0.189299
0.190316
0.192088
0.194311
0.196467
0.198018
0.198824
0.199235
0.200002
0.202542
0.207868
0.212574
0.213526
0.210875
0.198711
0.181122
0.17693
0.177273
0.178716
0.181399
0.183696
0.184998
0.185927
0.187074
0.188707
0.190719
0.192663
0.194047
0.194745
0.195203
0.196183
0.198736
0.203136
0.206095
0.205888
0.203501
0.195304
0.180349
0.174171
0.174101
0.174762
0.176407
0.178549
0.180055
0.180911
0.181666
0.182714
0.18406
0.185595
0.186954
0.187607
0.187708
0.187854
0.188631
0.190615
0.193202
0.193843
0.192933
0.189532
0.1792
0.168432
0.16613
0.165745
0.166249
0.167834
0.169733
0.170911
0.171524
0.171999
0.172503
0.173312
0.174687
0.176477
0.177925
0.178669
0.179088
0.179566
0.180421
0.182153
0.183575
0.183268
0.181981
0.177185
0.167689
0.162796
0.16227
0.162343
0.163345
0.165103
0.166407
0.166868
0.167045
0.16721
0.167468
0.16804
0.169078
0.170432
0.171637
0.172534
0.173396
0.174656
0.176549
0.177904
0.178013
0.177345
0.173697
0.165441
0.160466
0.160023
0.160202
0.161144
0.16283
0.163643
0.163551
0.163148
0.162708
0.162361
0.162175
0.162235
0.162658
0.163402
0.16392
0.164011
0.163948
0.164016
0.164609
0.165393
0.165392
0.164669
0.162521
0.157024
0.151152
0.149677
0.149526
0.150054
0.151518
0.15314
0.153717
0.153705
0.153527
0.15332
0.153149
0.153174
0.153431
0.153939
0.154524
0.154957
0.155191
0.155379
0.155777
0.156489
0.157053
0.156728
0.155758
0.152404
0.145327
0.141606
0.141395
0.141768
0.142981
0.144954
0.14688
0.148029
0.148894
0.149857
0.150966
0.152353
0.154188
0.156579
0.159397
0.162236
0.164781
0.167036
0.169348
0.172358
0.176508
0.180453
0.182514
0.182365
0.178799
0.176033
0.177523
0.180983
0.186533
0.191705
0.194595
0.19663
0.198017
0.200053
0.2025
0.205474
0.209194
0.213091
0.216492
0.219657
0.223186
0.227934
0.234472
0.241647
0.250898
0.264578
0.287443
0.331737
0.399786
0.488474
0.57081
0.62415
0.652265
0.664302
0.668689
0.668778
0.663131
0.654966
0.654137
0.66443
0.682441
0.696676
0.703648
0.710519
0.721372
0.743014
0.774032
0.80286
0.825314
0.855469
0.868899
43.7382
1.76293
0.25342
0.250257
0.214978
0.169604
0.157817
0.160354
0.168534
0.177657
0.187856
0.198034
0.208534
0.221441
0.238842
0.26251
0.284372
0.293945
0.294215
0.291053
0.28495
0.274944
0.239018
0.181185
0.169186
0.171097
0.177583
0.185788
0.192645
0.19752
0.200869
0.203319
0.205435
0.207823
0.211587
0.217952
0.226642
0.235996
0.243222
0.249982
0.256643
0.25432
0.246391
0.212711
0.176124
0.172418
0.174341
0.179174
0.184243
0.187874
0.190147
0.19135
0.192039
0.192783
0.194147
0.196993
0.201506
0.206624
0.211049
0.21401
0.216011
0.219905
0.228225
0.232088
0.231614
0.220951
0.192343
0.178704
0.178231
0.180342
0.184229
0.187376
0.188886
0.189401
0.189797
0.190704
0.192332
0.194414
0.196449
0.197866
0.198577
0.198862
0.199451
0.201765
0.2069
0.211563
0.212378
0.210029
0.198497
0.181116
0.176754
0.177031
0.178408
0.181114
0.183577
0.185034
0.18605
0.187234
0.188883
0.190916
0.192907
0.194332
0.195065
0.195588
0.196649
0.199175
0.203296
0.206146
0.205745
0.203282
0.195492
0.180776
0.174195
0.174105
0.175035
0.176865
0.179105
0.180654
0.181436
0.182074
0.183023
0.184372
0.185961
0.187364
0.188058
0.188209
0.188406
0.189264
0.191308
0.193938
0.194662
0.19369
0.190434
0.180366
0.169422
0.16694
0.166554
0.167049
0.168628
0.170545
0.171709
0.172272
0.172683
0.17315
0.173902
0.175185
0.17688
0.178275
0.178988
0.179387
0.179873
0.180759
0.182522
0.183906
0.183624
0.182349
0.177649
0.168178
0.162998
0.16236
0.162389
0.163328
0.16503
0.166335
0.166779
0.166899
0.166946
0.167108
0.167596
0.168581
0.169927
0.171171
0.172127
0.17306
0.174388
0.176267
0.177524
0.177579
0.176867
0.173188
0.164982
0.160171
0.159762
0.159916
0.160789
0.162503
0.163519
0.163552
0.163297
0.163011
0.162811
0.162743
0.162866
0.163319
0.164029
0.164514
0.164605
0.164562
0.164682
0.16533
0.166122
0.166093
0.165409
0.163172
0.157452
0.151544
0.150082
0.149892
0.150419
0.15189
0.153507
0.154072
0.154048
0.153823
0.153567
0.153356
0.153342
0.153576
0.15411
0.154798
0.155346
0.155683
0.155979
0.156493
0.157199
0.15766
0.157234
0.156006
0.151802
0.144061
0.140669
0.140478
0.14079
0.14199
0.143973
0.145756
0.146808
0.14755
0.148328
0.149271
0.150542
0.152271
0.154457
0.156927
0.15947
0.161908
0.164238
0.166747
0.170045
0.174489
0.178905
0.181213
0.18153
0.178087
0.174839
0.176224
0.179583
0.184784
0.189846
0.192759
0.194743
0.196281
0.198488
0.201173
0.204748
0.209443
0.214281
0.217795
0.22048
0.223485
0.227724
0.233809
0.240969
0.25031
0.264139
0.286262
0.328951
0.394222
0.478613