/*--------------------------------*- C++ -*----------------------------------*\
| =========                 |                                                 |
| \\      /  F ield         | OpenFOAM: The Open Source CFD Toolbox           |
|  \\    /   O peration     | Version:  2306                                  |
|   \\  /    A nd           | Website:  www.openfoam.com                      |
|    \\/     M anipulation  |                                                 |
\*---------------------------------------------------------------------------*/
FoamFile
{
    version     2.0;
    format      ascii;
    arch        "LSB;label=32;scalar=64";
    class       volScalarField;
    location    "0.15";
    object      T;
}
// * * * * * * * * * * * * * * * * * * * * * * * * * * * * * * * * * * * * * //

dimensions      [0 0 0 1 0 0 0];

internalField   nonuniform List<scalar> 
6000
(
3290.35
2870.52
2483.02
2395.61
2204.87
2025.76
1986.21
2001.17
2042.48
2109.37
2185.8
2263.52
2342.14
2427.75
2523.83
2617.57
2682.7
2714.78
2731.8
2749.69
2768.67
2764.57
2608.33
2332.55
2300.62
2319.73
2359.47
2402.93
2444.78
2488.49
2536.33
2585.21
2632.87
2676.35
2715.51
2751.73
2786.97
2824.79
2870.86
2933.28
2990.74
3015.12
3011.23
2900.62
2669.24
2618.16
2633.7
2665.76
2702.24
2731.61
2755.24
2778.78
2806.14
2838.02
2871.81
2904.3
2932.41
2955.61
2975.07
2994.65
3019.96
3060.28
3099.33
3103.49
3097.76
3018.92
2870.47
2831.61
2849.01
2861.94
2878.09
2887.49
2892.24
2904.7
2929.54
2963.02
2998.44
3027.62
3046.28
3058.66
3068.11
3078.12
3092.41
3114.48
3148.16
3172.83
3174.61
3163.08
3063.26
2972.32
2969.19
2978.25
2994.77
3008.46
3014.61
3022.23
3039.34
3065.02
3094.71
3120.56
3140.05
3153.45
3161.71
3168.17
3176.56
3188.99
3213.73
3245.22
3254.38
3256.23
3218.62
3123.35
3083.78
3090.23
3102.68
3122.78
3141.88
3153.61
3163.6
3177.47
3196.56
3219.12
3241.97
3261.65
3275.34
3284.4
3292.26
3303.06
3322.87
3356.25
3376.62
3385.23
3378.64
3322.25
3252.22
3242.73
3248.25
3262.56
3284.35
3304.02
3316.73
3327.03
3337.98
3349.35
3362.17
3377.9
3395.59
3410.37
3420.12
3427.57
3436.38
3451.48
3474.47
3492.29
3497.43
3494.96
3452.3
3375.05
3351.45
3357.3
3370.01
3390.96
3415.94
3432.08
3441.83
3451.78
3462.51
3472.76
3483.66
3496.72
3511.68
3524.77
3535.32
3546.33
3560.95
3582.33
3603.24
3612.21
3616.81
3597.67
3537.92
3502.13
3506.55
3520.08
3540.97
3566.94
3587.99
3602.56
3616.19
3631.18
3648.46
3669.14
3693.79
3720.75
3744.58
3761.7
3774.94
3787.6
3801.71
3820.56
3844.94
3865.35
3875.62
3876.78
3841.14
3784.33
3773.34
3782.99
3801.55
3824.35
3844.71
3858.85
3872.02
3883.8
3897
3912.65
3929.55
3951.09
3978.97
4012.14
4039.41
4056.06
4068
4078.69
4089.5
4099.99
4101.74
4094.62
4071.49
4014.48
3946.96
3912.19
3891.28
3870.07
3854.6
3839.74
3809.68
3766.05
3720.63
3676.18
3634.21
3596.13
3562.23
3532.57
3506.83
3484.2
3464.09
3446.73
3430.17
3402.82
3365.73
3313.42
3230.67
3147.77
3102.99
3071.03
3044.99
3026.16
2999.48
2952.63
2895.68
2834.09
2767.39
2696.51
2620.83
2539.36
2452.95
2364.63
2277.63
2189
2084.18
1965.62
1829.51
1695.74
1603.49
1528.76
1466.47
1406.05
1351.7
1309.57
1281.96
1268.69
1267.06
1276.19
1289.79
1296.32
1302.02
1300.96
1286.4
1269.1
1242.4
1176.24
1045.52
861.825
673.023
530.292
449.794
408.439
390.007
379.814
3290.37
2870.43
2485.24
2399.99
2208.79
2029.74
1993.14
2008.59
2047.64
2111.6
2185.43
2261.59
2339.57
2424.33
2520.62
2616.1
2684.47
2717.98
2736.44
2754.58
2771.82
2765.83
2612.04
2335.53
2301.29
2323.28
2364.75
2409.99
2452.46
2494.01
2537.44
2582.61
2627.64
2671.03
2711.43
2749.4
2785.98
2824.55
2871.82
2936.18
2994.4
3017.37
3012.35
2900.2
2667.54
2616.89
2634.38
2667.75
2704.91
2734.27
2757.08
2779.03
2804.88
2835.77
2869.78
2903.29
2932.18
2955.37
2974.19
2992.79
3017.03
3056.64
3097.16
3102.88
3098.27
3020.11
2868.67
2828.35
2845.66
2859.9
2877.35
2888.16
2894.47
2907.42
2931.39
2963.59
2997.58
3026.41
3046.36
3060.01
3070.62
3081.35
3095.86
3118.48
3152.31
3177.3
3179.91
3168.2
3068.13
2975.23
2971.19
2979.53
2995.41
3009.87
3017.36
3025.55
3042.34
3067.7
3097.15
3123.09
3142.54
3155.69
3163.55
3169.61
3177.85
3190.4
3215.54
3247.35
3256.86
3258.66
3220.59
3125.57
3086.68
3092.53
3103.49
3122.39
3140.43
3151.46
3161.28
3175.23
3194.2
3216.18
3238.41
3257.73
3271.69
3281.19
3289.43
3300.28
3319.81
3352.23
3371.79
3379.8
3372.47
3314.48
3243.49
3234.2
3239.87
3253.76
3275.26
3295.2
3308.38
3319.03
3330.33
3341.84
3354.75
3370.65
3388.57
3403.51
3413.44
3421.11
3430.01
3445.12
3468.24
3485.99
3491.48
3489.39
3448.14
3372.31
3349.07
3355.3
3367.83
3388.51
3413.51
3429.91
3439.7
3450.04
3461.64
3472.86
3485.57
3501.26
3517.51
3530.41
3540.71
3551.7
3566.35
3587.62
3608.2
3616.93
3621.22
3601.49
3540.98
3505.1
3509.4
3523
3544.19
3570.72
3591.88
3605.74
3618.46
3632.34
3648.2
3667.15
3690.39
3717.56
3743.23
3761.63
3774.87
3786.96
3800.54
3818.7
3841.92
3861.14
3871.32
3872.23
3836.47
3780.45
3770.5
3781.12
3801.06
3826.06
3848.27
3863.29
3876.14
3886.84
3899.66
3915.02
3932.25
3953.98
3981.17
4013.38
4040.99
4058.64
4071.29
4082.24
4093.08
4103.79
4105.69
4098.88
4076.23
4019.7
3952.28
3917.82
3896.69
3875.2
3859.49
3843.74
3812.74
3768.66
3721.99
3676.97
3633.9
3594.55
3559.85
3530.07
3504.17
3480.59
3459.02
3440.53
3424.11
3399.71
3364.49
3315.08
3238.13
3156.12
3109.57
3077.36
3050.87
3031.76
3004.33
2955.56
2897.34
2835.12
2769.07
2699.9
2626.04
2545.69
2459.6
2370
2280.79
2191.02
2088.1
1972.06
1839.49
1706.28
1612.51
1535.38
1468.73
1400.86
1337.65
1289.28
1258.78
1245.09
1244.69
1255.58
1270.23
1279.05
1287.54
1288.12
1275.52
1261.93
1238.96
1175.27
1047.27
864.678
675.481
532.073
450.868
408.375
389.835
380.595
3290.73
2870.45
2487.27
2404.1
2213.58
2037.25
2003.92
2018.23
2052.74
2112.45
2183.32
2259.11
2338.21
2422.97
2516.47
2612.94
2687.58
2723.43
2742.99
2759.49
2771.84
2764.19
2616.78
2341.13
2302.54
2329.28
2374.28
2421.47
2462.34
2498.52
2535.43
2576
2620.25
2665.73
2708.92
2748.84
2786.5
2824.67
2871.9
2938.41
2998.07
3018.74
3012.35
2897.68
2663.93
2615.08
2636.11
2671.56
2709.54
2737.76
2757.79
2776.76
2800.6
2831.17
2866.33
2901.34
2931.03
2954.14
2972.08
2989.18
3012.03
3050.87
3094.16
3103.14
3099.6
3022.36
2866.17
2823.73
2840.61
2857.4
2876.8
2889.9
2898.69
2911.65
2933.43
2963.01
2995.5
3024.62
3046.9
3062.73
3074.97
3086.42
3101.06
3124.59
3159.54
3183.68
3187.25
3174.24
3074.09
2978.57
2973.37
2981.6
2997.1
3012.88
3022.05
3030.9
3047.03
3071.2
3099.84
3125.32
3144.58
3157.66
3165.28
3170.78
3178.75
3191.78
3218.35
3251.06
3260.74
3262.53
3223.6
3128.38
3089.79
3094.07
3103.55
3120.99
3137.75
3147.89
3157.86
3172.11
3190.94
3211.83
3232.75
3251.29
3265.35
3275.41
3284.5
3295.77
3315.3
3346.5
3364.98
3371.98
3363.89
3304.15
3232.17
3223.71
3229.92
3243.55
3264.81
3285.19
3298.99
3309.89
3321.35
3333
3346.12
3362.41
3380.86
3396.15
3406.34
3414.29
3423.38
3438.64
3462.12
3479.82
3485.58
3483.64
3443.77
3369.78
3346.66
3353.01
3365.17
3385.39
3410.16
3426.91
3437.36
3448.41
3461.04
3473.6
3488.13
3505.73
3523.73
3537.37
3547.86
3558.94
3573.82
3595.28
3615.46
3623.83
3627.7
3607.15
3545.56
3509.2
3513.26
3526.91
3548.29
3575.31
3597.07
3610.1
3621.63
3634.2
3648.44
3665.12
3685.93
3712.1
3739.28
3759.26
3772.94
3785
3798.34
3815.94
3837.6
3855.08
3864.95
3864.64
3827.56
3773.27
3765.28
3777.37
3798.98
3827.08
3852.05
3867.85
3880.87
3890.89
3902.86
3918.33
3936.5
3958.33
3984.35
4014.46
4041.26
4059.41
4072.59
4083.97
4095.35
4106.52
4108.44
4101.97
4079.66
4023.06
3956.48
3923.69
3903.14
3883.18
3868.81
3852.83
3820.11
3775.35
3727.16
3680.18
3635.94
3595.85
3560.79
3530.86
3504.83
3480.06
3455.68
3434.21
3417.2
3397.37
3365
3320.04
3249.11
3169.01
3121.24
3089.68
3063.17
3043.98
3014.91
2964.63
2904.99
2840.66
2774.14
2705.39
2635.59
2562.22
2481.65
2395.14
2306.28
2216.46
2116.52
2005.58
1880.53
1747.12
1643.28
1552.33
1469.06
1382.6
1298.14
1234.45
1195.96
1179.71
1180.97
1195.3
1212.44
1226.03
1241.08
1246.71
1239.7
1233.65
1218.98
1166.08
1048.68
871.503
682.79
538.063
455.684
411.232
391.767
383.13
3290.91
2870.42
2490.42
2409.39
2221.87
2049.77
2016.5
2030.04
2059.38
2113.42
2180.5
2255.2
2335.11
2419.5
2510.71
2607.48
2689.32
2728.99
2749.41
2763.34
2770.57
2763.79
2624.83
2348.96
2303.68
2336.82
2385.56
2433.61
2471.4
2501.95
2532.67
2568.7
2611.77
2659.21
2706.13
2748.37
2787.72
2826.75
2874.26
2941.09
3002.23
3020.36
3012.65
2895.28
2659.07
2612.67
2637.42
2676.26
2715.01
2741.41
2757.81
2773.29
2794.09
2823.35
2859.18
2895.87
2927.21
2950.54
2968.28
2984.19
3005.48
3043.18
3089.1
3101.89
3099.97
3025.48
2864.18
2817.96
2833.98
2853.7
2876.3
2892.12
2902.86
2915.74
2935.45
2962.24
2992.71
3021.96
3046.44
3064.98
3079.24
3091.86
3107.09
3131.51
3168.17
3192.35
3196.91
3182.92
3083.3
2984.31
2977.7
2985.6
3000.76
3017.65
3028.51
3038.03
3053.44
3076.14
3103.11
3127.56
3146.39
3159.51
3167.25
3172.6
3180.65
3194.4
3222.6
3255.89
3265.94
3268.08
3227.2
3130.82
3092.28
3094.78
3103.14
3119.28
3134.96
3144.47
3154.98
3169.58
3188.41
3208.11
3228.05
3246.38
3260.77
3271.4
3281.02
3292.58
3312.04
3341.64
3358.33
3363.79
3353.92
3291.12
3217.35
3208.81
3214.94
3228.32
3249.21
3270.05
3284.69
3296.19
3308.08
3320.14
3333.93
3351.2
3370.69
3386.7
3397.28
3405.53
3414.84
3430.07
3453.6
3471.56
3477.53
3476.44
3438.9
3367.02
3343.57
3350.15
3361.9
3381.93
3406.8
3424.37
3436.1
3448.11
3461.33
3475.19
3490.96
3509.93
3529.7
3545.06
3556.53
3568.12
3583.59
3605.47
3625.31
3633.36
3636.69
3615.42
3552.62
3515.61
3519.34
3532.88
3554.27
3581.42
3602.48
3614.62
3624.94
3635.83
3648.16
3663.06
3681.59
3705.94
3733.5
3755.11
3769.22
3781.04
3794.07
3811.07
3831
3846.5
3856.01
3854.71
3817.4
3766.05
3760.16
3773.8
3796.48
3826.52
3853.48
3870.58
3884.51
3895.99
3908.85
3924.81
3943.54
3965.05
3989.55
4017.01
4042.66
4061.87
4076.22
4088.44
4101.05
4113.3
4115.56
4109.84
4087.95
4030.66
3964.53
3933.63
3913.95
3895.38
3882.41
3865.73
3829.62
3783.15
3733.57
3685.36
3640.49
3599.49
3563.57
3533.06
3506.31
3480.3
3454.51
3431.89
3415.1
3399.59
3369.98
3328.81
3262.67
3184.61
3135.74
3105.02
3079.88
3062.41
3032.74
2982.04
2921.81
2856.25
2790.77
2723.32
2656.96
2590.87
2520.52
2442.36
2359.18
2274.53
2183.23
2081.28
1965.91
1830.24
1707.18
1590.78
1476.68
1360.74
1246.08
1159.09
1108.69
1087.59
1090.04
1105.84
1122.16
1138.16
1157.08
1168.24
1172.08
1175.7
1171.51
1137.8
1043.15
882.75
699.602
553.72
468.5
421.63
400.164
390.9
3291.1
2869.63
2491.26
2413.73
2234.87
2065.75
2029.12
2042.38
2066.23
2114.58
2177.15
2249.51
2329.17
2414.33
2504.64
2601.75
2689.24
2733.94
2754.72
2766.36
2769.71
2764.69
2635.82
2358.45
2305.88
2343.8
2395.46
2443.08
2477.77
2504.26
2530.49
2562.49
2603.27
2651.1
2701.1
2747.61
2789.85
2830.99
2878.91
2945
3006.35
3022.21
3012.75
2890.07
2651.39
2608.81
2637.25
2680.51
2720.11
2744.34
2757.34
2769.42
2786.46
2812.91
2848.03
2885.9
2919.91
2945.15
2963.51
2978.52
2998.42
3034.52
3082.55
3099.76
3099.62
3030.03
2864.49
2812.59
2827.12
2849.5
2875.47
2894.08
2906.67
2919.35
2936.94
2960.84
2989.25
3018.31
3044.56
3065.31
3081.06
3094.31
3109.85
3135.17
3174.63
3200.33
3206.36
3191.85
3094.73
2991.74
2983.44
2991.16
3005.68
3023.25
3035.94
3046.23
3060.62
3081.26
3105.9
3128.7
3146.97
3160.28
3168.44
3174.16
3182.51
3197.32
3227.3
3260.84
3271.73
3273.15
3229.59
3131.74
3093.79
3095.07
3101.95
3116.6
3131.86
3142.36
3154.07
3169.23
3187.89
3206.12
3224.65
3242.17
3256.4
3267.08
3276.93
3288.63
3308.23
3336.59
3351.99
3356.43
3345.33
3280.72
3206.21
3196.74
3202.02
3214.87
3235.16
3256.12
3271.39
3283.37
3295.47
3307.76
3322.19
3340.55
3361.32
3378.4
3389.64
3398.42
3408.14
3423.35
3446.84
3465.11
3471.06
3470.82
3436.03
3365.82
3341.84
3348.4
3359.82
3379.12
3403.79
3422.23
3434.8
3447.14
3461.1
3476.02
3492.97
3513.09
3534.18
3550.9
3563.4
3575.64
3591.75
3614.35
3634.59
3642.82
3646.27
3625.3
3561.83
3524.03
3527.45
3540.67
3561.77
3588.6
3607.98
3618.97
3628.1
3637.05
3647.34
3660.57
3677.48
3700.23
3727.28
3749.52
3763.97
3775.73
3788.5
3804.92
3823.48
3837.57
3846.74
3844.95
3807.94
3758.65
3754.07
3768.51
3791.18
3821.97
3851.52
3870.61
3885.68
3899.55
3914.45
3931.73
3951.26
3972.76
3996.04
4021.12
4044.97
4064.22
4079.5
4093.08
4107.46
4121.35
4124.31
4119.47
4098.42
4040.29
3973.95
3945.07
3926.1
3908.45
3896.28
3877.7
3839.21
3792.55
3742.23
3693.61
3648.76
3607.49
3571.08
3540.41
3513.58
3487.11
3461.03
3438.1
3421.16
3407.27
3378.79
3339.31
3276.51
3200.65
3151.22
3121.36
3098.04
3083.34
3056.22
3007.21
2947.77
2882.13
2819.01
2755.63
2694.44
2636.72
2577
2508.41
2433.81
2359.07
2282.82
2194.4
2089.57
1953.79
1804.28
1654.18
1501.1
1350.4
1205.62
1094.77
1031.62
1005.24
1006.69
1019.54
1029.98
1042.7
1056.84
1067.45
1081.66
1095.05
1101.78
1086.66
1024.05
895.331
729.786
587.528
497.985
446.527
420.758
408.821
3290.93
2868.64
2491.25
2416.92
2248.32
2081.51
2040.62
2052.57
2072.49
2115.89
2173.94
2242.44
2319.97
2405.32
2497.18
2597.02
2688.03
2738.79
2759.88
2766.44
2769.54
2766.16
2646.34
2368.56
2309.22
2347.98
2401.43
2449.15
2482.26
2506.48
2530.09
2559.11
2596.47
2642.9
2694.79
2745.52
2791.97
2836.23
2885.27
2950.12
3010.4
3023.19
3011.46
2880.72
2640.64
2603.49
2634.96
2682.21
2722.99
2746
2756.95
2766.04
2779.49
2801.53
2833.84
2871.82
2909.2
2938.44
2958.35
2973.4
2992.07
3026.42
3075.94
3097.11
3098.46
3034.99
2867.37
2808.26
2820.98
2845.23
2874.56
2896.12
2909.77
2921.89
2937.46
2958.9
2985.4
3013.92
3041.13
3063.73
3080.6
3094.25
3109.51
3134.96
3176.46
3204.38
3211.92
3197.88
3106.11
2999.52
2988.63
2996.88
3011.62
3029.98
3044.1
3054.73
3067.69
3085.74
3107.41
3128.72
3146.61
3160.02
3168.64
3175.1
3184.07
3200.32
3232
3264.57
3276.13
3275.29
3229.81
3131.37
3093.88
3094.82
3100.56
3114.19
3129.85
3141.63
3154.57
3170.44
3188.54
3205.34
3222.61
3239.88
3254.11
3264.72
3274.52
3286.35
3306.2
3333.53
3347.69
3351.32
3338.86
3272.35
3197.99
3188.16
3192.86
3205.74
3225.84
3246.97
3262.75
3275.1
3287.32
3299.67
3314.42
3333.5
3355.22
3373.21
3385.27
3394.78
3405.01
3420.28
3443.56
3461.92
3467.57
3467.9
3435.58
3366.96
3342.25
3348.57
3359.68
3378.17
3402.36
3421.12
3434.04
3446.32
3460.26
3475.19
3492.5
3513.43
3535.55
3553.59
3567.33
3580.64
3597.64
3621.07
3641.53
3649.66
3653.41
3633.5
3570.46
3531.93
3535.06
3547.92
3568.53
3594.13
3611.62
3621.69
3629.89
3637.59
3646.76
3658.57
3674.44
3695.63
3721.65
3743.61
3758.03
3769.81
3782.57
3798.91
3816.99
3830.32
3839.13
3837.05
3800.33
3752.66
3748.97
3763.71
3786.16
3816.95
3849.04
3869.93
3885.79
3901.61
3918.43
3936.99
3957.46
3979.42
4002.19
4025.75
4048.35
4067.28
4083.01
4097.61
4113.66
4129.09
4133
4129.07
4107.59
4044.91
3978.67
3952.64
3934.87
3919.28
3908.63
3889.09
3849.14
3802.07
3751.9
3703.97
3659.63
3618.97
3583.58
3554.5
3529.76
3505.1
3479.13
3455.09
3436.95
3423.4
3395
3355.25
3293.11
3218.69
3169.34
3140.3
3118.78
3106.55
3082.72
3036.3
2980.08
2916.5
2855.74
2797.27
2742.1
2691.41
2640.28
2581.58
2518.03
2456.29
2396.54
2324.88
2229.39
2097.1
1924.04
1738.2
1540.48
1353.63
1188.01
1057.96
984.093
953.933
953.754
960.355
962.234
965.592
966.584
970.509
988.619
1008.99
1023.65
1021.83
989.362
902.253
772.468
645.355
553.125
494.504
459.378
441.87
3290.77
2868.12
2491.62
2418.48
2257.74
2092.92
2047.71
2058.28
2077.56
2117.84
2172.58
2237.71
2310.99
2394.65
2488.24
2592.05
2687.38
2743.64
2764.51
2767.1
2770.82
2768.53
2654.97
2376.77
2311.44
2349.07
2402.85
2451.54
2485.3
2509.12
2531.74
2559.03
2593.55
2637.05
2688.62
2742.46
2793.7
2841.94
2892.19
2954.92
3011.79
3021.58
3007.53
2868.29
2629.17
2597.75
2631.8
2681.53
2722.69
2745.53
2755.76
2763.04
2773.64
2791.89
2820.05
2856.79
2896.82
2931.03
2953.71
2970.13
2987.9
3020.47
3070.94
3095.2
3097.21
3039.5
2872.94
2806.42
2816.97
2841.68
2873.19
2897.26
2911.96
2923.41
2937.35
2956.7
2981.56
3009.36
3036.49
3059.59
3077.28
3091.26
3106.44
3131.76
3173.92
3203.99
3212.77
3199.54
3115.39
3006.44
2991.5
2999.89
3015.18
3034.99
3050.74
3061.8
3073.49
3089
3107.94
3127.87
3145.55
3159.3
3168.31
3175.29
3184.91
3202.83
3236.09
3267.02
3277.92
3274.46
3227.91
3128.98
3092.18
3093.52
3099.54
3113.04
3129.8
3143.5
3156.93
3172.44
3189.53
3205.82
3222.75
3240.01
3254.17
3264.57
3274.18
3286.16
3306.28
3333.21
3346.49
3349.65
3335.96
3268.14
3194.34
3184.38
3188.52
3201.23
3221.2
3242.5
3258.6
3271.22
3283.47
3295.87
3310.87
3330.53
3353
3371.63
3384.29
3394.38
3405.1
3420.34
3443.27
3461.94
3467.66
3468.69
3438.39
3370.34
3344.22
3350.17
3361.12
3378.98
3402.68
3421.59
3434.49
3446.27
3459.51
3473.76
3490.49
3510.93
3533.13
3552.28
3567.06
3581.11
3598.71
3622.88
3644.57
3653.61
3657.84
3638.89
3576.96
3538.46
3542.01
3555.42
3576.19
3601.43
3617.45
3626.39
3633.51
3640.03
3647.98
3658.13
3672.78
3692.51
3717
3738.21
3752.45
3764.15
3777.11
3793.99
3812.34
3825.43
3833.95
3831.79
3795.43
3748.75
3745.5
3760.26
3782.74
3813.45
3846.68
3869.2
3885.9
3902.56
3920.12
3939.17
3960.16
3982.52
4005.61
4028.83
4050.66
4069.64
4085.94
4101.34
4118.61
4134.74
4139.18
4135.72
4112.04
4044.07
3978.74
3955.86
3939.95
3927.32
3919.5
3898.99
3859.36
3812.94
3764.63
3718.95
3676.47
3637.91
3605.51
3579.75
3557.49
3533.53
3506.74
3480.98
3460.77
3446.52
3418.87
3379.01
3317.08
3242.04
3190.83
3161.57
3140.78
3129.61
3107.03
3062.99
3010.92
2951.88
2895.22
2841.23
2790.42
2744
2697.72
2647.41
2596.04
2547.61
2501.45
2445.08
2358.13
2231.05
2045.78
1827.23
1591.38
1369.06
1185.18
1045.62
965.844
933.347
930.129
930.448
926.632
918.522
906.179
903.362
913.945
931.87
950.035
957.353
945.031
898.978
816.238
720.481
633.629
567.865
518.776
491.905
3290.53
2868.03
2494.1
2421.37
2264.01
2098.35
2049.8
2059.49
2080.77
2120.17
2173.15
2235.96
2306.36
2387.37
2481.92
2589.83
2688.13
2747.23
2768.36
2769.6
2774.09
2771.86
2659.24
2380.71
2312.2
2347.84
2400.51
2449.67
2484.76
2510.89
2534.95
2561.83
2594.64
2634.71
2683.65
2739.04
2793.91
2846.37
2898
2957.37
3010.76
3017.42
3001.84
2854.13
2619.2
2592.84
2626.98
2677.59
2719.47
2742.62
2753.04
2760.32
2769.73
2784.91
2809.2
2843.77
2884.64
2923.03
2950.1
2969.06
2986.56
3017.2
3068.26
3094.18
3096.75
3044.06
2880.65
2806.56
2815.46
2840.22
2873.22
2899.17
2914.58
2925.15
2937.35
2954.79
2978.06
3004.8
3031.05
3053.33
3070.46
3084.09
3099.01
3124.25
3166.61
3199.75
3210.29
3198.13
3121.39
3011.28
2991.99
3000.12
3015.97
3036.97
3054.15
3065.81
3076.9
3090.74
3107.8
3126.54
3144.17
3158.25
3167.84
3175.38
3185.4
3204.69
3239.06
3267.97
3277.35
3271.41
3224.05
3125.76
3088.93
3091.67
3099.46
3113.93
3131.9
3147.27
3161.04
3175.84
3192.15
3208.31
3225.32
3242.88
3256.97
3266.65
3275.67
3287.65
3307.84
3334.52
3347.34
3349.96
3335.6
3267.53
3194.31
3184.07
3187.79
3200.14
3219.79
3241.14
3257.42
3270.07
3282.28
3294.71
3309.9
3329.83
3352.79
3372.23
3385.72
3396.59
3408.17
3423.7
3446.42
3465.43
3471.21
3472.77
3444.5
3376.21
3347.64
3352.8
3363.54
3380.81
3404.14
3423.31
3436.05
3447.24
3459.46
3472.6
3488.1
3507.55
3529.47
3548.99
3564.52
3579.2
3597.41
3622.4
3645.23
3655.47
3659.97
3642.08
3581.17
3543.25
3547.42
3561.18
3581.95
3607.3
3623.04
3631.52
3638.08
3644.07
3651.19
3660.38
3674.03
3691.95
3713.77
3733.41
3747.41
3759.35
3772.6
3790.12
3809.12
3822.29
3830.69
3828.59
3792.84
3747.09
3744.25
3758.93
3781.4
3812
3845.44
3868.67
3885.7
3902.53
3919.97
3938.52
3959.27
3981.97
4005.9
4029.65
4051.22
4069.67
4086.03
4102.33
4120.94
4137.67
4142.42
4139.32
4113.33
4039.88
3976.67
3956.91
3942.59
3932.29
3925.19
3905.5
3868.87
3826.03
3782.49
3741.59
3702.74
3667.74
3638.22
3614.76
3594.18
3570.73
3543.1
3515.9
3493.79
3478.9
3453.03
3413.29
3351.68
3274.01
3216.49
3184.95
3161.72
3150.18
3127.97
3084.92
3035.2
2979.83
2927.32
2877.1
2829.35
2783.78
2739.65
2697.08
2656.41
2617.73
2580.01
2533.72
2455.82
2334.05
2146.46
1905.57
1642.11
1391.54
1189.14
1044.68
962.655
929.678
923.791
920.72
914.484
901.497
882.243
870.601
868.687
875.641
889.124
899.724
899.599
883.25
841.38
785.567
718.148
652.807
591.723
553.338
3290.12
2867.51
2498.2
2428.76
2271.47
2099.9
2047.4
2056.52
2082.22
2122.74
2175.68
2236.55
2304.47
2383.21
2477.31
2587.99
2688.31
2749.89
2772.91
2772.95
2777.54
2774.47
2659.92
2380.19
2311.32
2343.11
2393.5
2444.37
2483.1
2512.76
2539.28
2566.73
2597.81
2634.84
2680.46
2735.14
2792.6
2848.95
2901.81
2957.58
3007.56
3011.84
2994.73
2841.12
2613.16
2590.89
2622.65
2670.44
2712.49
2737.58
2750.39
2759
2768.49
2781.78
2803.05
2834.63
2874.27
2915.01
2947.01
2969.1
2987.19
3016.16
3067.59
3094.56
3097.94
3049.16
2888.94
2808.6
2815.77
2840.64
2874.46
2901.41
2917.24
2927.32
2938.21
2954.15
2975.55
3000.62
3025.3
3045.92
3061.42
3074.02
3088.45
3113.2
3155.02
3191.43
3204.28
3193.85
3123.17
3012.97
2990.58
2998.36
3014.22
3036.07
3054.47
3066.87
3077.66
3090.52
3106.73
3125
3142.72
3156.94
3166.73
3174.57
3185.07
3205.67
3240.72
3267.86
3274.62
3267.02
3220.06
3124
3086.35
3090.33
3100.28
3116.45
3136.19
3152.83
3166.44
3180.13
3195.66
3212.29
3229.92
3248.04
3261.89
3270.61
3278.96
3291.02
3311.44
3338.43
3351.06
3352.89
3338.54
3270.91
3197.75
3187.06
3190.62
3202.85
3222.41
3243.94
3260.39
3272.97
3284.95
3297.26
3312.32
3332.26
3355.6
3375.94
3390.28
3401.95
3414.38
3430.2
3452.64
3471.52
3476.99
3478.45
3451.4
3383.43
3352.16
3356.06
3366.34
3383.47
3406.65
3426.1
3438.59
3448.97
3459.76
3471.44
3485.58
3503.86
3524.99
3544.4
3560.41
3576.08
3595.54
3621.73
3644.9
3655.15
3660.19
3643.15
3583.09
3546.16
3550.68
3564.55
3584.55
3609.84
3626.53
3635.4
3642.28
3648.91
3656.17
3665.37
3678.07
3694.43
3713.9
3731.13
3744.05
3755.9
3769.56
3787.71
3807.46
3820.74
3829.03
3826.81
3791.36
3746.35
3743.81
3758.16
3780.48
3810.67
3843.7
3866.57
3883.16
3899.43
3916.24
3934.18
3954.76
3977.51
4001.98
4026.34
4048.41
4067.47
4084.82
4102.43
4122.08
4138.48
4143.09
4140.46
4110.83
4031.27
3972.03
3955.15
3942.55
3933.51
3926.64
3911.3
3880.91
3844.89
3808.2
3771.54
3736.41
3704.94
3679.03
3658.41
3639.23
3616.04
3588.49
3560.54
3537.28
3521.46
3498.06
3458.1
3397.01
3315.52
3249.38
3213.2
3185.43
3169.26
3145.41
3102.05
3051.53
2996.17
2944.89
2896.08
2849.42
2804.43
2763.79
2728.16
2694
2659.82
2625.49
2584.16
2513.45
2397.12
2213.08
1962.17
1683.08
1414.23
1198.41
1049.46
966.674
933.751
925.691
921.71
915.585
903.612
883.271
863.865
850.087
841.529
844.006
851.229
857.21
855.277
840.591
814.329
772.336
719.672
658.331
612.305
3289.6
2866.51
2502.08
2438.35
2278.41
2097.64
2040.78
2050.26
2082.01
2124.94
2178.8
2238.58
2304.33
2381.15
2473
2585.09
2687.65
2751.58
2776.92
2775.84
2779.58
2776.01
2657.93
2376.37
2307.66
2334.32
2383.82
2437.73
2481.72
2515.76
2544.66
2572.72
2602.73
2636.98
2679.18
2731.41
2790.1
2850.14
2903.58
2956.15
3002.26
3004.24
2986.62
2831.6
2611.42
2592.33
2619.19
2662.43
2703.12
2731.14
2747.84
2759.02
2769.65
2782.61
2801.63
2830.87
2869
2909.09
2943.66
2968.58
2988.4
3017.07
3068.98
3096.98
3101.7
3054.79
2896.52
2812.84
2817.55
2841.26
2874.74
2902.21
2918.63
2928.95
2939.5
2954.52
2974.47
2997.4
3020.05
3038.83
3052.77
3064.18
3077.78
3101.66
3142.51
3180.65
3194.61
3186.52
3120.72
3011.41
2986.94
2994.41
3010.03
3032.66
3052.56
3065.62
3076.29
3088.72
3104.53
3122.9
3140.87
3155.23
3165
3172.96
3184.15
3205.83
3241.23
3266.9
3270.63
3263.03
3217.94
3124.34
3085.31
3089.66
3101.8
3120.02
3141.68
3159.41
3172.69
3185.36
3200.13
3216.87
3235.32
3253.55
3267.06
3275.58
3283.87
3296.28
3317.29
3344.74
3357.39
3358.21
3344.71
3278.5
3204.97
3193.54
3197.15
3209.49
3229.14
3251.02
3267.76
3280.3
3291.98
3304.07
3318.83
3338.45
3361.62
3382.04
3396.59
3408.53
3421.39
3437.46
3459.89
3478.45
3483.59
3484.72
3458.7
3391.42
3357.91
3360.4
3369.94
3386.96
3409.69
3429.08
3441.39
3451.11
3460.63
3471.05
3484.24
3501.66
3522.04
3541.18
3557.62
3574.06
3594.63
3621.49
3644.31
3654.57
3659.19
3641.95
3582.13
3546.13
3550.79
3564.31
3583.24
3608.78
3627.08
3636.74
3644.35
3652.16
3660.65
3670.77
3683.22
3698.35
3716.16
3732.25
3744.19
3755.02
3768.16
3786.81
3807.56
3821.07
3829.42
3826.61
3790.27
3745.46
3742.93
3756.36
3777.83
3806.85
3838.69
3860.95
3877.21
3892.99
3909.63
3926.99
3946.72
3968.85
3993.27
4018.28
4041.18
4061.22
4079.94
4099.55
4120.54
4137.12
4142.33
4139.74
4103.69
4017.7
3964.17
3950.03
3939.81
3932.44
3929.37
3921.38
3898.6
3868.6
3837.38
3805.54
3775.19
3748.61
3726.91
3708.69
3690.06
3667.81
3641.63
3614.38
3590.74
3574.08
3552.4
3510.69
3449.22
3362.64
3285.99
3242.23
3208.03
3185.91
3157.55
3110.65
3057.61
3001.1
2949.1
2900.53
2856.38
2818.21
2782.86
2747.34
2712.37
2678.7
2645.21
2605.15
2537.8
2425.13
2245.85
1994.33
1710.52
1433.48
1210.33
1058.59
977.535
946.583
937.821
935.399
932.539
923.704
904.701
879.614
852.153
824.891
811.232
809.684
813.732
818.823
819.514
810.071
787.875
750.582
699.443
653.396
3289.13
2865.39
2505.89
2447.7
2283.21
2090.43
2029.88
2041.03
2080.3
2126.6
2181.76
2240.94
2304.77
2379.15
2468.73
2580.46
2684.84
2751.08
2779.73
2778.91
2780.29
2776.49
2653.65
2371.1
2302.63
2324.75
2373.43
2430
2479.47
2518.64
2550.4
2579.22
2608.45
2640.41
2679.09
2728.73
2787.32
2849.15
2903.21
2953.69
2996.19
2996.25
2979.75
2828.17
2614.21
2595.61
2616.88
2654.98
2693.33
2723.13
2744.72
2760.02
2772.65
2786.29
2804.44
2831.95
2868.62
2907.35
2941.52
2967.88
2989.14
3019.26
3072.55
3101.4
3107.78
3061.36
2903.02
2818.33
2821.1
2842.8
2874.32
2901.37
2918.51
2929.46
2940.03
2954.36
2973.56
2995.32
3016.53
3033.76
3046.81
3057.46
3070.1
3092.58
3132.19
3170.03
3183.31
3177.2
3115.24
3007.1
2981.41
2988.67
3004.06
3026.98
3048.13
3062.34
3073.41
3085.74
3101.42
3119.85
3138.1
3152.69
3162.61
3171.02
3183.1
3205.48
3240.19
3265.04
3267.17
3260.37
3218.61
3127.28
3085.56
3089.79
3104.1
3124.01
3146.85
3165.4
3178.37
3190.15
3204.16
3220.96
3239.85
3258.25
3271.96
3281.11
3289.97
3303.16
3325
3352.84
3365.74
3365.95
3353.63
3289.78
3215.24
3202.39
3206.01
3218.49
3238.43
3260.83
3277.8
3290.14
3301.34
3313.1
3327.37
3346.17
3368.47
3388.44
3402.84
3414.78
3427.87
3444.35
3467.38
3485.83
3490.76
3491.69
3466.43
3399.69
3364.41
3365.88
3374.63
3391.16
3413.32
3432.74
3444.95
3453.93
3462.09
3471.38
3483.9
3501.02
3521.27
3540.43
3557.03
3573.95
3595.28
3621.95
3642.98
3652
3656
3638
3578.06
3543.19
3548.02
3561.06
3579.16
3605.02
3625.31
3636.13
3644.55
3653.22
3662.69
3673.59
3686.14
3701.06
3718.28
3733.71
3745.46
3756.41
3769.73
3788.53
3809.3
3822.49
3830.95
3826.88
3787.87
3742.49
3739.74
3752.04
3772.83
3801.32
3832.46
3853.97
3869.51
3884.19
3899.67
3915.96
3934.59
3955.9
3980.04
4005.63
4029.58
4050.74
4070.77
4091.94
4113.7
4130.48
4136.58
4133.64
4091.54
4001.74
3956.3
3946.23
3938.9
3935.61
3938.02
3935.46
3918.76
3894.09
3867.92
3841.41
3816.59
3795.19
3777.26
3760.97
3743.94
3723.88
3700.07
3674.65
3652.15
3635.42
3613.45
3568.24
3503.28
3408.95
3321.04
3269.31
3227.57
3196.21
3162.38
3111.94
3055.3
2997.3
2944.86
2897.14
2857.02
2825.13
2795.93
2761.36
2723.73
2687.4
2651.78
2610.27
2543.75
2432.74
2256.18
2006.16
1724.45
1448.2
1224.94
1075.66
1000.78
974.891
970.886
973.216
977.556
974.649
959.12
926.77
877.1
822.138
782.983
765.829
765.081
770.755
780.43
785.181
778.754
756.122
714.201
672.208
3288.57
2864.04
2509.18
2456.01
2286.57
2082.86
2019.96
2033.02
2077.18
2127.31
2184.21
2243.86
2307.37
2380.21
2466.7
2574.19
2679.72
2746.69
2779.63
2784.64
2780.43
2774.6
2650.39
2368.55
2298.33
2317.06
2364.3
2422.14
2475.95
2520.13
2555.23
2584.98
2613.17
2643.35
2679.6
2726.94
2784.15
2845.99
2900.78
2951.25
2991.08
2990.13
2976.57
2831.83
2620.81
2600.26
2616.06
2649.2
2684.65
2714.77
2740.32
2760.24
2776.67
2792.57
2811.38
2837.46
2871.67
2908.17
2940.19
2965.65
2987.78
3020.76
3076.62
3106.25
3115.31
3068.07
2908.34
2824.58
2824.4
2842.96
2872.45
2899.01
2917.13
2929.26
2940.14
2953.51
2971.15
2992.43
3014.08
3032.04
3045.6
3056.24
3068.09
3089.31
3127.55
3163.02
3174.1
3168.77
3108.48
3000.99
2974.63
2981.61
2996.94
3020.09
3042.01
3057.32
3069.18
3081.77
3097.35
3115.62
3133.86
3148.73
3159.28
3168.96
3182.58
3204.68
3237.53
3262.88
3265.58
3259.69
3221.69
3132.31
3088.06
3092.3
3107.54
3128.25
3152.18
3171.01
3183.44
3194.35
3207.54
3224.05
3242.68
3260.82
3274.88
3285.18
3295.44
3310.4
3333.32
3361.78
3375.24
3374.7
3363.63
3302.6
3226.87
3212.51
3216.22
3229.09
3249.6
3272.65
3289.77
3301.67
3311.94
3322.82
3336.29
3354.2
3375.61
3394.94
3408.9
3420.61
3433.76
3450.77
3474.65
3493.4
3498.38
3499
3474.27
3407.88
3371.26
3371.85
3379.99
3396.2
3418.02
3437.56
3449.64
3457.86
3465
3473.33
3485.2
3502.12
3522.6
3542.26
3559.37
3576.66
3597.79
3622.98
3641.21
3648.11
3651.06
3631.86
3572.05
3538.58
3543.35
3556.03
3573.83
3599.79
3621.78
3633.99
3643.04
3652.39
3662.65
3673.86
3686.42
3701.62
3718.98
3734.48
3746.65
3758.24
3772.36
3791.97
3812.53
3824.7
3832.53
3826.19
3783.69
3738.14
3735.72
3747.32
3767.27
3794.94
3825.06
3845.11
3859.13
3872.02
3885.85
3900.93
3918.56
3939.12
3963.03
3989.19
4014.14
4036.26
4057.14
4079.08
4100.62
4117.36
4124.13
4121.6
4078.15
3990.82
3952.8
3946.6
3942.38
3943.71
3950.32
3951.47
3939.9
3919.98
3898.67
3877.38
3857.59
3840.25
3825.11
3811.25
3797.09
3780.52
3760.18
3737.54
3716.78
3699.73
3674.78
3624.33
3552.97
3449.09
3351.11
3288.87
3238.27
3197.88
3158.58
3105.87
3046.98
2989.48
2938.16
2892.49
2854.72
2824.45
2798.82
2768.86
2731.2
2692.07
2653.31
2610.08
2541.25
2429.08
2251.56
2004.13
1729.77
1462.79
1248.6
1111.29
1048.9
1032.01
1034.32
1044.47
1059.39
1065.2
1055.27
1016.01
933.962
832.985
754.676
715.17
706.273
711.313
725.246
742.59
750.279
742.585
713.126
676.959
3288.05
2862.77
2512.6
2465.36
2293.8
2080.62
2013.87
2027.82
2073.84
2126.52
2185.74
2246.05
2309.5
2380.31
2463.23
2565.84
2671.45
2738.89
2777.21
2789.13
2779.07
2771.77
2649.94
2370.07
2296.22
2312.59
2357.84
2415.48
2471.43
2519.52
2557.45
2588.22
2616.27
2645.46
2679.96
2724.97
2780.83
2841.14
2896.51
2949.04
2987.85
2987.13
2977.1
2841.38
2630.34
2605.8
2617.18
2646.31
2678.95
2707.71
2734.75
2759.8
2780.57
2799.77
2820.93
2846.87
2878.33
2910.67
2939.25
2962.7
2985.57
3021.93
3080.42
3110.2
3121.78
3072.64
2910.6
2829.33
2826.22
2841.64
2869.37
2895.14
2913.72
2927.18
2938.5
2951.2
2967.56
2988.05
3010.3
3031.27
3047.33
3059.64
3071.51
3091.4
3127.57
3160.6
3169.48
3164.12
3102.98
2994.66
2968.14
2974.48
2989.49
3012.81
3035.3
3051.27