/*--------------------------------*- C++ -*----------------------------------*\
| =========                 |                                                 |
| \\      /  F ield         | OpenFOAM: The Open Source CFD Toolbox           |
|  \\    /   O peration     | Version:  2306                                  |
|   \\  /    A nd           | Website:  www.openfoam.com                      |
|    \\/     M anipulation  |                                                 |
\*---------------------------------------------------------------------------*/
FoamFile
{
    version     2.0;
    format      ascii;
    arch        "LSB;label=32;scalar=64";
    class       volVectorField;
    location    "0.15";
    object      U;
}
// * * * * * * * * * * * * * * * * * * * * * * * * * * * * * * * * * * * * * //

dimensions      [0 1 -1 0 0 0 0];

internalField   nonuniform List<vector> 
6000
(
(-2381.02 0.123339 0)
(-770.691 0.0960318 0)
(259.136 2.60724 0)
(143.489 3.6618 0)
(-3.13162 3.13046 0)
(-201.542 3.32631 0)
(-247.477 2.51411 0)
(-248.239 1.80016 0)
(-227.862 0.318551 0)
(-186.353 -0.773877 0)
(-128.313 -0.175806 0)
(-58.9393 0.835035 0)
(18.9314 1.65454 0)
(104.91 0.986607 0)
(197.33 0.364647 0)
(282.755 0.661011 0)
(339.154 0.0233594 0)
(360.039 -1.29077 0)
(367.285 -2.88309 0)
(369.623 -3.94609 0)
(367.674 -4.38694 0)
(336.533 -3.58294 0)
(163.022 -2.8451 0)
(-111.297 -1.54855 0)
(-148.623 0.494903 0)
(-130.887 1.92885 0)
(-93.6691 2.53086 0)
(-54.4137 2.17175 0)
(-23.3633 1.12085 0)
(0.296854 -0.0907687 0)
(20.5188 -1.04982 0)
(40.6385 -0.0348855 0)
(63.0469 1.04799 0)
(90.2521 1.43977 0)
(122.475 1.6663 0)
(157.977 2.34418 0)
(194.186 3.17694 0)
(230.279 2.49209 0)
(269.495 1.71721 0)
(317.263 0.817194 0)
(351.277 0.815398 0)
(353.606 1.34159 0)
(339.499 1.44405 0)
(227.626 1.19832 0)
(6.51635 1.2191 0)
(-45.0629 1.50595 0)
(-42.1696 1.92256 0)
(-24.2371 2.21869 0)
(0.184787 1.81746 0)
(20.1919 1.15264 0)
(36.7296 0.223314 0)
(52.1801 -0.18385 0)
(66.6802 -0.248892 0)
(80.1865 -0.328981 0)
(93.4569 -0.0553432 0)
(107.919 0.105173 0)
(124.4 0.575291 0)
(142.412 0.577679 0)
(160.583 0.225446 0)
(179.288 -0.410556 0)
(204.468 -0.828174 0)
(247.085 -0.992896 0)
(290.2 -0.798724 0)
(308.707 -0.578826 0)
(295.535 -0.420715 0)
(197.893 -0.230531 0)
(28.6809 0.0601145 0)
(-23.8133 0.449677 0)
(-25.8088 1.13183 0)
(-2.61159 1.70597 0)
(28.7425 2.07371 0)
(54.4587 2.07649 0)
(74.7443 1.70847 0)
(87.8092 1.70715 0)
(91.127 1.67713 0)
(90.7694 1.4712 0)
(92.4917 1.75116 0)
(102.294 1.59988 0)
(120.249 2.04451 0)
(140.992 2.28806 0)
(159.913 2.41612 0)
(176.547 2.36646 0)
(192.275 2.03376 0)
(216.694 1.88547 0)
(256.032 2.11018 0)
(281.812 1.95237 0)
(284.911 1.5476 0)
(249.094 1.16915 0)
(130.761 1.1129 0)
(26.1678 1.17859 0)
(8.08125 1.69401 0)
(20.518 1.82066 0)
(46.8368 2.03276 0)
(73.3695 2.34557 0)
(91.5861 2.16081 0)
(102.948 1.64059 0)
(105.196 1.48792 0)
(102.597 1.09066 0)
(101.78 0.618261 0)
(107.626 0.214424 0)
(120.249 0.188498 0)
(134.936 0.179628 0)
(147.738 0.250218 0)
(158.869 0.553825 0)
(168.27 0.939507 0)
(181.307 1.19741 0)
(205.208 1.27443 0)
(232.139 1.23168 0)
(238.53 1.23931 0)
(230.744 1.33797 0)
(187.314 1.11156 0)
(92.371 0.614245 0)
(51.7926 -0.0466813 0)
(49.649 -0.620097 0)
(57.9813 -1.1676 0)
(76.707 -1.71389 0)
(95.687 -2.01909 0)
(106.799 -2.14514 0)
(112.895 -2.46093 0)
(115.921 -2.9078 0)
(118.383 -3.41369 0)
(123.33 -3.99634 0)
(132.173 -4.34923 0)
(143.32 -4.92357 0)
(153.222 -4.90589 0)
(160.387 -4.7878 0)
(166.777 -4.6275 0)
(174.336 -4.56778 0)
(189.386 -4.52508 0)
(213.383 -4.43854 0)
(224.646 -4.40038 0)
(221.21 -4.40501 0)
(203.381 -4.26625 0)
(144.322 -4.27092 0)
(75.6212 -4.50042 0)
(62.4286 -4.38191 0)
(66.0583 -4.2643 0)
(76.6365 -4.0727 0)
(93.9396 -3.71611 0)
(107.139 -3.56149 0)
(112.004 -3.67548 0)
(113.092 -3.49694 0)
(114.268 -3.23542 0)
(118.232 -2.98363 0)
(126.709 -2.58582 0)
(139.673 -2.08462 0)
(154.462 -1.62564 0)
(166.362 -1.23978 0)
(173.717 -0.92408 0)
(179.512 -0.736053 0)
(186.456 -0.774015 0)
(198.235 -1.02012 0)
(217.417 -1.36227 0)
(229.191 -1.76421 0)
(231.365 -2.06452 0)
(223.038 -2.22173 0)
(181.535 -2.17547 0)
(109.956 -2.01538 0)
(85.4174 -1.99149 0)
(84.9191 -1.9792 0)
(89.0696 -1.9748 0)
(101.247 -2.05659 0)
(116.154 -2.27971 0)
(122.396 -2.34994 0)
(123.038 -2.3297 0)
(122.465 -2.30284 0)
(122.423 -2.14193 0)
(124.195 -1.98269 0)
(128.979 -1.49446 0)
(136.756 -0.62591 0)
(146.432 0.387639 0)
(154.191 1.11575 0)
(159.777 1.64008 0)
(165.073 2.03671 0)
(172.825 2.30579 0)
(186.368 2.50639 0)
(197.432 2.66892 0)
(201.747 2.7782 0)
(197.526 2.86884 0)
(173.488 2.94942 0)
(115.938 3.03933 0)
(80.7623 3.15633 0)
(77.0124 3.25131 0)
(80.3402 3.32031 0)
(89.649 3.49647 0)
(103.224 3.70997 0)
(111.577 3.82414 0)
(113.903 3.71296 0)
(114.511 3.46463 0)
(115.499 3.17049 0)
(118.334 2.73336 0)
(124.487 2.0704 0)
(134.736 1.33932 0)
(147.539 0.745784 0)
(158.222 0.46209 0)
(163.9 0.404261 0)
(166.767 0.308877 0)
(169.354 0.0916848 0)
(173.18 -0.100531 0)
(180.519 -0.353318 0)
(192.803 -0.814271 0)
(200.13 -1.41585 0)
(201.608 -1.96672 0)
(192.563 -2.37998 0)
(155.198 -2.5505 0)
(101.535 -2.54944 0)
(86.1339 -2.5289 0)
(86.7054 -2.47273 0)
(93.2194 -2.23835 0)
(103.443 -1.75875 0)
(109.905 -1.1482 0)
(112.126 -0.428765 0)
(110.801 0.31199 0)
(108.097 0.992463 0)
(106.57 1.54619 0)
(106.923 1.96002 0)
(109.689 2.13348 0)
(116.574 2.22818 0)
(129.092 2.27226 0)
(146.654 2.23787 0)
(160.181 2.22404 0)
(166.612 2.30246 0)
(170.76 2.32775 0)
(174.634 2.25832 0)
(180.5 2.19299 0)
(189.254 2.14206 0)
(192.576 2.08953 0)
(191.681 2.0695 0)
(182.555 2.11952 0)
(149.199 2.21891 0)
(106.963 2.3699 0)
(94.3153 2.4859 0)
(91.169 2.64427 0)
(94.9614 2.77366 0)
(106.688 2.74905 0)
(121.491 2.65385 0)
(128.358 2.56381 0)
(126.824 2.48162 0)
(124.141 2.2644 0)
(122.825 1.96938 0)
(123.541 1.53414 0)
(126.571 0.983869 0)
(131.496 0.350402 0)
(137.952 -0.324318 0)
(145.367 -1.00906 0)
(153.186 -1.86037 0)
(162.026 -2.71204 0)
(172.956 -3.28186 0)
(183.562 -3.59447 0)
(188.36 -3.59086 0)
(185.089 -3.27097 0)
(170.916 -2.34153 0)
(128.528 -0.813467 0)
(84.7435 0.88621 0)
(74.2742 1.83134 0)
(74.1853 2.35074 0)
(84.0481 2.73685 0)
(102.436 2.94 0)
(116.58 2.99609 0)
(118.777 2.78114 0)
(115.655 2.52095 0)
(112.76 2.09396 0)
(111.524 1.9753 0)
(113.12 1.97628 0)
(117.554 2.08049 0)
(123.323 2.165 0)
(131.141 2.06913 0)
(143.021 1.57575 0)
(160.664 0.186432 0)
(180.457 -1.82116 0)
(187.521 -3.38782 0)
(174.02 -4.12004 0)
(128.721 -4.74842 0)
(83.8715 -5.54934 0)
(66.376 -6.29916 0)
(75.6019 -6.42939 0)
(92.8402 -5.88718 0)
(104.174 -4.06095 0)
(109.504 -3.35005 0)
(115.623 -3.25972 0)
(125.48 -3.34612 0)
(138.762 -3.30337 0)
(158.562 -3.04083 0)
(182.381 -2.41829 0)
(200.194 -2.04302 0)
(204.01 -1.05861 0)
(201.858 -0.416266 0)
(189.215 -0.628502 0)
(166.874 -0.237887 0)
(155.568 2.3204 0)
(148.419 3.37505 0)
(141.472 4.64006 0)
(134.123 4.65955 0)
(126.026 4.26908 0)
(120.953 3.49685 0)
(126.323 2.93505 0)
(144.591 2.70928 0)
(150.624 2.27845 0)
(139.535 1.69369 0)
(125.513 0.647729 0)
(-2380.44 0.332216 0)
(-770.21 -0.16308 0)
(258.511 3.32271 0)
(142.533 5.51497 0)
(-6.48848 5.88112 0)
(-206.236 3.60541 0)
(-249.824 -1.38802 0)
(-250.53 -4.89538 0)
(-227.37 -6.1572 0)
(-183.248 -5.55617 0)
(-123.01 -1.55405 0)
(-53.7313 4.36932 0)
(22.1777 7.8594 0)
(104.546 8.23047 0)
(193.091 7.51576 0)
(277.888 4.18475 0)
(335.837 -0.274382 0)
(356.963 -5.48029 0)
(363.87 -11.2828 0)
(366.468 -15.8456 0)
(365.745 -16.6571 0)
(338.651 -16.0412 0)
(171.159 -12.3183 0)
(-105.562 -4.15645 0)
(-146.195 0.974254 0)
(-131.885 3.718 0)
(-96.7485 3.17724 0)
(-58.4439 -0.394702 0)
(-26.9722 -4.43053 0)
(-1.03512 -5.97063 0)
(22.1198 -4.92265 0)
(44.5575 -0.253823 0)
(67.5393 5.49532 0)
(93.2763 8.20267 0)
(122.79 9.38175 0)
(155.813 10.0614 0)
(190.865 10.7896 0)
(226.685 7.94159 0)
(266.229 2.56068 0)
(315.964 -0.470983 0)
(351.669 -1.12511 0)
(354.8 0.289168 0)
(342.465 1.99954 0)
(230.676 3.25434 0)
(8.15726 4.06319 0)
(-43.5342 5.42239 0)
(-42.3841 6.08724 0)
(-25.5827 5.91965 0)
(-1.91215 3.57307 0)
(18.2255 -0.0581823 0)
(35.8626 -1.96824 0)
(52.8038 -1.47431 0)
(68.5667 -0.574343 0)
(82.2898 0.973663 0)
(94.5615 2.04264 0)
(107.945 1.48494 0)
(123.904 2.05519 0)
(142.065 1.70654 0)
(160.612 1.45835 0)
(179.728 0.702838 0)
(204.799 0.141759 0)
(246.483 -0.292664 0)
(290.915 -0.781331 0)
(309.49 -0.973132 0)
(297.125 -0.800795 0)
(201.382 -0.0687801 0)
(31.058 1.79219 0)
(-21.9603 3.66247 0)
(-24.6232 6.03249 0)
(-2.38424 7.14319 0)
(27.9295 7.36187 0)
(52.9078 5.99995 0)
(72.3711 3.69337 0)
(84.9806 2.31771 0)
(89.6378 1.39319 0)
(91.0578 1.57678 0)
(94.2808 3.91725 0)
(104.461 4.41722 0)
(121.451 6.28368 0)
(140.878 6.64357 0)
(158.734 6.07347 0)
(174.645 4.86759 0)
(190.372 3.34313 0)
(214.804 2.21339 0)
(253.898 1.18218 0)
(279.533 -0.307573 0)
(282.264 -1.84747 0)
(247.636 -2.77475 0)
(131.446 -2.43474 0)
(27.209 -0.828529 0)
(10.1832 2.02395 0)
(21.8006 3.6362 0)
(46.5152 5.47475 0)
(72.4014 5.89402 0)
(90.1351 4.4214 0)
(101.162 2.28981 0)
(103.729 0.81276 0)
(101.339 -0.752055 0)
(101.113 -1.469 0)
(107.403 -2.07457 0)
(120.394 -2.05662 0)
(135.366 -1.86014 0)
(148.234 -1.35714 0)
(159.466 -0.637305 0)
(168.924 -0.0358165 0)
(182.1 0.448617 0)
(206.052 0.842264 0)
(232.777 1.28234 0)
(238.759 1.34632 0)
(230.709 1.32132 0)
(186.172 0.575114 0)
(90.6261 -1.03439 0)
(50.663 -2.71609 0)
(49.1119 -3.71102 0)
(58.3108 -4.48835 0)
(77.4496 -5.03839 0)
(96.3842 -4.88431 0)
(107.102 -4.31646 0)
(112.554 -4.47083 0)
(114.554 -5.52056 0)
(116.242 -7.20411 0)
(120.948 -9.01514 0)
(130.299 -10.5983 0)
(142.524 -12.2304 0)
(153.578 -12.3296 0)
(161.588 -11.9413 0)
(168.388 -11.3044 0)
(176.227 -10.7092 0)
(191.274 -10.0665 0)
(214.914 -9.34159 0)
(225.831 -8.64255 0)
(222.818 -7.99542 0)
(205.656 -6.51337 0)
(146.604 -4.82581 0)
(77.8638 -3.75213 0)
(64.7738 -2.25597 0)
(67.911 -1.55369 0)
(77.8681 -0.76565 0)
(94.6684 -0.0776522 0)
(107.79 0.00566017 0)
(112.635 -0.268393 0)
(113.543 -0.0200459 0)
(114.521 0.38962 0)
(118.386 0.796146 0)
(126.838 1.4938 0)
(139.822 2.35539 0)
(154.615 3.14007 0)
(166.388 3.81863 0)
(173.569 4.2835 0)
(179.188 4.47505 0)
(185.988 4.33641 0)
(197.519 3.8528 0)
(216.403 3.14778 0)
(227.785 2.29135 0)
(229.595 1.32729 0)
(220.945 0.169736 0)
(179.691 -0.766446 0)
(108.39 -1.20037 0)
(83.6996 -1.62508 0)
(83.0129 -2.08289 0)
(87.2103 -2.66142 0)
(99.5891 -3.38311 0)
(114.815 -4.28535 0)
(121.36 -4.64722 0)
(121.925 -4.77564 0)
(121.225 -4.97785 0)
(121.09 -5.29866 0)
(122.996 -5.80894 0)
(128.223 -5.96279 0)
(137.407 -5.21668 0)
(147.841 -3.84586 0)
(155.338 -2.51636 0)
(160.755 -1.41044 0)
(166.095 -0.5075 0)
(174.067 0.270704 0)
(187.856 1.19301 0)
(198.976 2.22962 0)
(203.413 3.17895 0)
(199.293 4.10062 0)
(175.191 4.92197 0)
(117.469 5.36937 0)
(82.4675 5.80138 0)
(78.7817 6.20736 0)
(81.9769 6.58897 0)
(91.1869 7.07917 0)
(104.788 7.6525 0)
(112.946 8.32772 0)
(114.727 8.712 0)
(114.953 8.72592 0)
(115.612 8.69592 0)
(117.876 8.36154 0)
(123.011 7.47012 0)
(132.193 5.64192 0)
(145.098 3.29775 0)
(157.242 1.48091 0)
(164.049 0.654273 0)
(167.174 0.425614 0)
(169.958 0.4286 0)
(173.816 0.605047 0)
(180.995 0.967893 0)
(192.84 1.05733 0)
(199.589 0.607027 0)
(200.77 -0.109125 0)
(191.128 -1.17831 0)
(153.174 -2.71803 0)
(99.6254 -4.37567 0)
(84.5142 -5.35952 0)
(85.2421 -6.12956 0)
(91.7664 -6.91475 0)
(102.853 -7.07111 0)
(110.482 -6.23861 0)
(113.226 -4.81048 0)
(112.117 -3.25447 0)
(109.098 -1.57515 0)
(107.628 -0.276789 0)
(108.404 0.80171 0)
(111.876 2.08238 0)
(118.802 3.64896 0)
(130.568 4.73628 0)
(147.17 4.80788 0)
(160.678 4.03513 0)
(167.397 3.05099 0)
(171.395 2.28495 0)
(175.193 1.80091 0)
(181.137 1.5724 0)
(189.996 1.50527 0)
(193.33 1.55198 0)
(192.399 1.59308 0)
(183.374 1.61848 0)
(150.012 1.52874 0)
(107.823 1.32335 0)
(95.5889 1.2887 0)
(93.0037 1.6548 0)
(97.5187 2.31511 0)
(109.802 3.69458 0)
(124.466 5.11207 0)
(130.914 6.11543 0)
(129.146 6.74917 0)
(125.988 7.2241 0)
(124.209 7.10809 0)
(124.267 6.67931 0)
(126.485 5.81709 0)
(130.924 4.69745 0)
(137.264 3.63645 0)
(144.59 2.77632 0)
(151.896 2.11803 0)
(159.524 0.851199 0)
(168.963 -1.76625 0)
(179.852 -5.24624 0)
(186.252 -7.68501 0)
(183.697 -8.94268 0)
(171.044 -9.62022 0)
(132.785 -7.75494 0)
(89.0544 -3.36737 0)
(77.6269 -0.348394 0)
(76.8905 1.69854 0)
(86.3922 3.65744 0)
(104.582 5.30259 0)
(117.938 6.88913 0)
(118.985 7.60803 0)
(114.807 7.74324 0)
(110.814 6.48155 0)
(109.782 4.61571 0)
(112.873 2.73993 0)
(119.025 2.14594 0)
(126.653 3.30811 0)
(135.121 5.66606 0)
(145.829 7.25997 0)
(160.916 6.84858 0)
(177.663 3.90138 0)
(182.844 -2.2495 0)
(171.308 -8.19391 0)
(128.924 -13.2572 0)
(85.7165 -15.9221 0)
(68.091 -18.6116 0)
(78.4032 -20.1074 0)
(97.9797 -20.6845 0)
(109.7 -15.2247 0)
(111.911 -9.98142 0)
(114.518 -7.71385 0)
(122.154 -7.53596 0)
(135.526 -8.10041 0)
(156.483 -7.73739 0)
(181.448 -5.18672 0)
(197.762 -1.91247 0)
(201.37 -0.202693 0)
(199.257 1.09037 0)
(185.195 1.29442 0)
(162.673 -0.0486887 0)
(153.909 0.536151 0)
(148.27 4.13328 0)
(143.559 10.3087 0)
(136.726 13.4389 0)
(127.961 12.7241 0)
(122.35 10.0532 0)
(127.982 8.44397 0)
(145.125 8.37359 0)
(148.456 6.97232 0)
(136.306 4.73529 0)
(123.903 0.461654 0)
(-2379.71 0.756191 0)
(-769.548 0.284335 0)
(257.954 2.16592 0)
(141.323 4.34114 0)
(-11.5139 5.40541 0)
(-213.233 3.17865 0)
(-254.09 -2.99745 0)
(-254.283 -6.35995 0)
(-226.648 -8.05882 0)
(-177.086 -7.10514 0)
(-114.019 -1.11222 0)
(-44.9272 5.71292 0)
(27.7904 10.4102 0)
(104.126 12.0629 0)
(186.551 10.2472 0)
(269.942 5.64154 0)
(330.461 -0.641493 0)
(351.346 -9.10287 0)
(357.024 -17.2066 0)
(360.447 -23.1631 0)
(362.497 -23.7354 0)
(341.539 -22.4301 0)
(184.574 -16.6755 0)
(-96.2967 -4.71316 0)
(-144.003 1.8635 0)
(-135.132 4.70711 0)
(-103.547 3.56032 0)
(-66.8224 -1.65212 0)
(-33.8553 -7.02482 0)
(-3.6434 -8.0466 0)
(24.4699 -5.8186 0)
(50.1158 1.16004 0)
(73.2579 8.71357 0)
(96.7903 11.9165 0)
(123.253 13.8136 0)
(153.492 14.996 0)
(186.702 15.8117 0)
(221.713 12.0157 0)
(261.304 5.82652 0)
(312.538 1.30796 0)
(352.138 0.184602 0)
(357.1 2.71838 0)
(346.106 5.14079 0)
(233.633 6.51849 0)
(9.31477 7.20486 0)
(-41.7245 8.88442 0)
(-43.4166 9.71699 0)
(-28.032 9.13537 0)
(-5.02793 5.50477 0)
(15.413 0.183364 0)
(34.8186 -2.48625 0)
(54.2174 -1.77964 0)
(71.7625 0.0171029 0)
(85.9053 1.64894 0)
(97.0876 2.68101 0)
(108.862 1.61503 0)
(124.025 2.64415 0)
(142.062 2.25412 0)
(161.083 1.94905 0)
(180.972 0.752968 0)
(205.989 -0.334826 0)
(246.18 -1.09552 0)
(291.29 -2.08567 0)
(308.729 -3.07651 0)
(297.518 -3.41864 0)
(206.315 -2.26421 0)
(36.0302 1.60126 0)
(-17.1665 4.5802 0)
(-20.5885 8.04746 0)
(-0.552009 9.92695 0)
(28.0461 10.5532 0)
(51.8198 8.37294 0)
(69.5533 5.02863 0)
(81.9152 2.92962 0)
(88.6071 2.07843 0)
(92.6022 2.48303 0)
(97.5477 5.45179 0)
(107.488 6.72877 0)
(122.751 9.24326 0)
(140.554 9.92134 0)
(157.207 9.30586 0)
(172.627 8.02974 0)
(188.7 6.22686 0)
(213.352 4.53863 0)
(252.086 2.66675 0)
(275.699 0.185506 0)
(277.383 -2.27111 0)
(245.316 -4.18816 0)
(134.175 -3.23087 0)
(30.521 -0.472793 0)
(13.9924 3.85533 0)
(23.541 5.76477 0)
(45.7527 8.12918 0)
(70.7428 8.45713 0)
(88.026 6.12908 0)
(98.7545 3.4812 0)
(101.44 1.49473 0)
(99.394 -0.574488 0)
(99.8036 -1.72483 0)
(107.061 -2.50184 0)
(120.976 -2.55892 0)
(136.538 -2.10362 0)
(149.452 -1.33774 0)
(160.65 -0.334436 0)
(170.014 0.562155 0)
(183.209 1.08864 0)
(207.48 1.4254 0)
(233.748 1.93553 0)
(238.823 1.83655 0)
(230.113 1.38443 0)
(183.834 0.0828451 0)
(87.8645 -2.17717 0)
(48.4536 -4.34434 0)
(48.1584 -5.00307 0)
(58.2786 -5.89241 0)
(77.8673 -6.67115 0)
(96.8501 -6.87339 0)
(107.354 -6.61847 0)
(112.224 -7.09085 0)
(113.072 -9.04894 0)
(113.823 -11.5475 0)
(118.397 -13.7043 0)
(128.365 -15.6951 0)
(141.674 -17.4393 0)
(153.603 -17.5538 0)
(162.171 -17.1928 0)
(169.085 -16.5045 0)
(177.239 -15.7319 0)
(192.404 -14.6788 0)
(215.697 -13.5893 0)
(226.355 -12.829 0)
(224.144 -12.0775 0)
(207.755 -10.5655 0)
(148.184 -8.81217 0)
(79.164 -7.57316 0)
(66.8324 -5.62477 0)
(69.3253 -4.47296 0)
(78.64 -3.28915 0)
(94.8265 -2.35645 0)
(107.992 -2.12989 0)
(113.008 -2.22097 0)
(113.817 -1.49874 0)
(114.757 -0.662191 0)
(118.656 0.101831 0)
(127.16 1.14656 0)
(140.29 2.27717 0)
(155.151 3.2734 0)
(166.663 4.10352 0)
(173.542 4.5716 0)
(178.865 4.68172 0)
(185.347 4.35188 0)
(196.35 3.55683 0)
(214.731 2.37478 0)
(225.56 0.86958 0)
(226.973 -0.381089 0)
(218.097 -1.68243 0)
(177.276 -2.58524 0)
(106.848 -3.0841 0)
(82.1469 -3.52239 0)
(81.4223 -4.08436 0)
(85.8166 -4.68141 0)
(98.2171 -5.30161 0)
(113.783 -6.39636 0)
(120.865 -6.76797 0)
(121.468 -6.6497 0)
(120.779 -6.61178 0)
(120.511 -6.43113 0)
(122.599 -6.64411 0)
(128.584 -6.44499 0)
(138.905 -5.60144 0)
(150.079 -4.19372 0)
(157.612 -2.70964 0)
(162.738 -1.19805 0)
(167.943 0.0939272 0)
(176.085 1.20857 0)
(189.984 2.57024 0)
(200.775 4.07533 0)
(205.074 5.47091 0)
(201.032 6.8395 0)
(176.783 8.07645 0)
(118.559 8.97616 0)
(83.2744 9.86925 0)
(79.5405 10.5787 0)
(82.5177 11.2863 0)
(91.64 11.995 0)
(105.518 12.5599 0)
(114.059 13.0103 0)
(115.449 13.0896 0)
(115.462 12.8512 0)
(115.948 12.4164 0)
(117.496 11.785 0)
(121.272 10.5518 0)
(128.827 8.54126 0)
(141.279 5.91531 0)
(154.941 3.44639 0)
(163.249 1.97289 0)
(166.921 1.35667 0)
(169.97 1.05693 0)
(174.182 0.955291 0)
(181.471 1.0696 0)
(192.684 0.892724 0)
(198.954 0.10546 0)
(199.853 -0.910957 0)
(189.493 -2.41598 0)
(150.644 -4.44927 0)
(98.2061 -6.29163 0)
(83.7599 -7.25542 0)
(84.5527 -7.97976 0)
(91.1603 -8.64542 0)
(103.906 -8.77569 0)
(113.098 -7.93717 0)
(116.156 -6.51862 0)
(115.091 -4.78923 0)
(111.477 -2.39249 0)
(109.276 0.070681 0)
(110.182 2.10389 0)
(114.055 4.22549 0)
(120.785 6.3315 0)
(131.502 7.79747 0)
(146.303 8.04199 0)
(159.006 7.04479 0)
(165.941 5.77091 0)
(170.312 4.81519 0)
(174.323 4.25768 0)
(180.458 4.01839 0)
(189.553 4.12213 0)
(192.768 4.43498 0)
(191.713 4.68147 0)
(182.457 4.87284 0)
(148.735 4.67524 0)
(106.912 4.10884 0)
(95.1298 3.92973 0)
(93.2204 4.22173 0)
(98.7239 5.0592 0)
(112.16 6.56095 0)
(126.809 8.42559 0)
(132.549 9.33789 0)
(130.588 9.53706 0)
(126.679 9.8535 0)
(123.691 9.32607 0)
(122.951 8.39485 0)
(124.631 7.0437 0)
(128.94 5.61623 0)
(135.61 4.16359 0)
(143.434 2.75137 0)
(150.575 1.19507 0)
(156.912 -0.826205 0)
(164.793 -3.70335 0)
(176.303 -7.19491 0)
(185.186 -9.71916 0)
(184.607 -11.029 0)
(174.031 -11.1749 0)
(140.087 -9.48586 0)
(96.0401 -5.36689 0)
(82.6239 -2.36294 0)
(81.1409 -0.0460263 0)
(90.4212 2.69259 0)
(108.547 5.74226 0)
(121.092 8.5319 0)
(121.341 10.2949 0)
(116.212 11.6042 0)
(110.808 11.9239 0)
(108.453 11.0342 0)
(110.117 9.10434 0)
(117.316 6.83398 0)
(128.494 5.87705 0)
(139.636 6.95472 0)
(149.983 8.73575 0)
(161.802 8.61255 0)
(174.412 4.2174 0)
(177.553 -4.20301 0)
(168.67 -12.8023 0)
(133.549 -19.7538 0)
(92.8403 -21.5783 0)
(72.414 -24.0116 0)
(80.6531 -27.3146 0)
(101.067 -28.7655 0)
(115.312 -26.886 0)
(115.238 -19.1316 0)
(113.211 -14.1464 0)
(116.419 -12.9209 0)
(127.883 -13.1346 0)
(149.338 -12.2458 0)
(175.557 -8.35393 0)
(189.362 -3.80851 0)
(192.865 -1.75411 0)
(190.756 -0.451526 0)
(175.134 -1.04067 0)
(154.392 -3.5719 0)
(150.028 -2.67173 0)
(146.911 2.7718 0)
(144.853 12.2061 0)
(139.153 20.6546 0)
(131.845 21.2209 0)
(125.589 18.5289 0)
(131.65 15.6029 0)
(147.507 14.4827 0)
(147.17 11.749 0)
(132.026 8.72848 0)
(121.051 3.04747 0)
(-2379.17 0.510181 0)
(-769.008 0.813558 0)
(257.694 -3.33621 0)
(141.942 -3.46929 0)
(-12.8864 0.139074 0)
(-217.058 1.32713 0)
(-258.586 -1.60895 0)
(-257.732 -4.93705 0)
(-225.31 -6.82442 0)
(-170.612 -6.60398 0)
(-104.279 -1.02322 0)
(-35.6607 5.63688 0)
(33.5541 10.2528 0)
(104.056 13.2242 0)
(179.431 11.9243 0)
(259.241 7.13106 0)
(321.916 -1.25961 0)
(343.304 -12.4595 0)
(349.147 -21.8447 0)
(354.752 -27.592 0)
(360.099 -27.3577 0)
(344.751 -26.4265 0)
(200.388 -20.3623 0)
(-85.4891 -6.77182 0)
(-141.621 1.12752 0)
(-139.986 4.01418 0)
(-112.628 2.82877 0)
(-76.6697 -2.39466 0)
(-41.1394 -7.32686 0)
(-6.46466 -7.08883 0)
(26.2284 -4.73934 0)
(55.1628 1.80701 0)
(79.1698 9.35638 0)
(100.587 13.3697 0)
(123.332 16.6701 0)
(150.202 18.7068 0)
(181.131 19.2362 0)
(215.574 16.4422 0)
(255.02 10.0251 0)
(307.156 4.89713 0)
(351.485 3.85665 0)
(359.908 6.76327 0)
(350.756 9.06951 0)
(237.856 9.98558 0)
(10.8326 10.1354 0)
(-39.8067 11.9799 0)
(-44.7225 13.0156 0)
(-30.7475 12.1489 0)
(-8.52304 7.94352 0)
(12.5791 1.58843 0)
(33.8297 -1.42376 0)
(55.6929 -1.37609 0)
(75.8026 0.150927 0)
(90.9764 1.88362 0)
(101.326 3.75333 0)
(111.131 3.32051 0)
(124.724 4.38026 0)
(142.274 3.79723 0)
(161.43 2.91325 0)
(182.071 1.02166 0)
(207.001 -0.611845 0)
(245.228 -1.88195 0)
(291.185 -3.8919 0)
(307.755 -5.76927 0)
(298.075 -6.76521 0)
(213.793 -5.47097 0)
(43.9886 -0.309024 0)
(-10.4645 4.247 0)
(-14.67 8.33614 0)
(2.12142 10.675 0)
(27.9834 12.0508 0)
(50.0345 9.59562 0)
(66.204 5.91601 0)
(78.6883 3.56787 0)
(87.7235 2.66526 0)
(94.7065 3.27134 0)
(101.658 6.03466 0)
(111.356 7.66162 0)
(124.571 10.5185 0)
(140.295 11.7416 0)
(155.763 11.6668 0)
(170.468 10.7306 0)
(186.27 8.87278 0)
(210.359 6.60788 0)
(248.072 3.78659 0)
(269.838 -0.0435896 0)
(270.779 -3.25608 0)
(242.492 -5.73576 0)
(138.017 -4.43178 0)
(35.3794 -0.998826 0)
(19.8043 3.60981 0)
(26.8006 6.20932 0)
(45.6565 9.05505 0)
(69.0751 9.57478 0)
(85.6109 6.87899 0)
(95.5214 3.78743 0)
(98.3101 1.46089 0)
(97.1361 -0.750118 0)
(98.6719 -1.6528 0)
(106.895 -2.11367 0)
(121.583 -2.43224 0)
(137.746 -1.90029 0)
(150.81 -1.41509 0)
(162.112 -0.770001 0)
(171.726 -0.165471 0)
(185.339 0.351731 0)
(210.166 0.99941 0)
(235.413 1.64034 0)
(239.178 1.18941 0)
(229.112 0.433093 0)
(181.309 -1.10847 0)
(85.459 -3.15519 0)
(47.2025 -4.91051 0)
(48.1991 -5.31677 0)
(58.8589 -6.14722 0)
(78.3979 -6.93141 0)
(97.2981 -7.55686 0)
(107.536 -7.92188 0)
(111.584 -8.79617 0)
(111.1 -11.2336 0)
(111.113 -13.9265 0)
(115.845 -15.8086 0)
(126.67 -17.61 0)
(141.154 -19.0038 0)
(154.211 -18.8934 0)
(163.519 -18.3105 0)
(170.765 -17.6397 0)
(179.371 -16.8362 0)
(194.9 -15.8118 0)
(217.807 -14.905 0)
(227.949 -14.397 0)
(226.528 -13.8532 0)
(210.769 -12.8842 0)
(150.578 -11.8214 0)
(81.6835 -10.722 0)
(69.881 -9.04079 0)
(72.1062 -7.91073 0)
(80.3665 -6.70455 0)
(95.4253 -5.62278 0)
(108.271 -5.20972 0)
(113.269 -5.05254 0)
(113.893 -3.98311 0)
(114.835 -2.83038 0)
(118.764 -1.74051 0)
(127.225 -0.412694 0)
(140.327 0.890607 0)
(155.115 1.95654 0)
(166.351 2.73871 0)
(172.777 3.11076 0)
(177.506 3.11159 0)
(183.251 2.61524 0)
(193.399 1.62418 0)
(211.023 0.157043 0)
(221.576 -1.67818 0)
(222.919 -3.05082 0)
(214.255 -4.48262 0)
(174.55 -5.20721 0)
(105.062 -5.08772 0)
(79.7451 -4.83027 0)
(78.761 -5.26988 0)
(83.3543 -5.6897 0)
(95.882 -6.13895 0)
(111.804 -7.21775 0)
(119.709 -7.57284 0)
(120.948 -7.1647 0)
(120.134 -6.76563 0)
(120.108 -6.09381 0)
(122.425 -5.71775 0)
(128.695 -4.93037 0)
(139.492 -3.83758 0)
(151.493 -2.84444 0)
(159.745 -1.69837 0)
(164.951 0.0312878 0)
(170.155 1.57975 0)
(178.423 2.89192 0)
(192.335 4.34842 0)
(202.859 5.8452 0)
(207.191 7.2545 0)
(203.443 8.71305 0)
(179.325 10.1845 0)
(120.734 11.4926 0)
(85.1991 12.7684 0)
(81.4696 13.806 0)
(84.2597 14.8266 0)
(93.1268 15.7155 0)
(106.879 16.4418 0)
(114.913 16.7334 0)
(116.148 16.3301 0)
(116.128 15.8207 0)
(116.063 14.9571 0)
(117.344 13.9869 0)
(120 12.6059 0)
(126.074 10.8475 0)
(137.458 8.46586 0)
(151.956 5.93138 0)
(161.997 4.11452 0)
(166.315 2.95967 0)
(169.602 2.20676 0)
(174.098 1.60393 0)
(181.618 1.20847 0)
(191.963 0.627034 0)
(197.966 -0.362819 0)
(198.326 -1.55919 0)
(187.111 -3.21618 0)
(147.557 -5.0697 0)
(97.0019 -6.41595 0)
(83.3675 -7.00288 0)
(84.1372 -7.47705 0)
(90.5469 -8.10669 0)
(104.002 -8.83386 0)
(114.499 -8.73342 0)
(117.793 -7.9296 0)
(117.209 -6.77627 0)
(114.372 -4.55189 0)
(112.706 -1.36757 0)
(113.968 1.91602 0)
(117.833 5.15546 0)
(123.92 8.0605 0)
(133.011 10.0673 0)
(145.405 10.7032 0)
(156.843 9.85081 0)
(164.001 8.4305 0)
(168.772 7.26829 0)
(173.396 6.60191 0)
(180.257 6.36431 0)
(189.919 6.67661 0)
(193.049 7.32128 0)
(191.746 7.97611 0)
(181.978 8.48498 0)
(147.144 8.30004 0)
(105.752 7.57632 0)
(94.822 7.41545 0)
(93.6168 7.68293 0)
(100.056 8.51182 0)
(114.61 9.98947 0)
(129.028 11.0133 0)
(133.385 11.3403 0)
(130.609 11.0076 0)
(125.795 9.98773 0)
(122.135 8.62556 0)
(121.052 7.34969 0)
(122.365 5.92123 0)
(126.505 4.47518 0)
(133.45 3.07042 0)
(141.585 1.79752 0)
(148.563 0.21842 0)
(154.224 -1.88049 0)
(161.311 -4.21031 0)
(173.151 -6.78331 0)
(184.092 -9.07732 0)
(185.891 -10.2921 0)
(176.608 -10.6323 0)
(146.331 -8.82445 0)
(102.564 -5.46325 0)
(87.3643 -2.95133 0)
(85.3686 -1.13374 0)
(95.1936 1.12573 0)
(114.156 4.16551 0)
(126.226 7.66352 0)
(125.736 10.7324 0)
(118.929 13.5677 0)
(111.605 14.9429 0)
(107.91 14.9877 0)
(108.39 14.5403 0)
(115.232 13.3968 0)
(127.895 12.3357 0)
(141.934 12.1333 0)
(153.111 11.4961 0)
(162.094 8.26141 0)
(170.949 1.26927 0)
(174.16 -8.53348 0)
(167.328 -17.4691 0)
(142.012 -23.4039 0)
(105.106 -23.6872 0)
(80.1198 -25.2614 0)
(84.0956 -28.6813 0)
(102.336 -32.8135 0)
(119.405 -32.9994 0)
(120.299 -25.8428 0)
(112.312 -19.4105 0)
(109.706 -16.034 0)
(117.885 -15.4162 0)
(140.231 -13.989 0)
(166.669 -8.91922 0)
(176.982 -3.7512 0)
(179.303 -0.605217 0)
(173.938 1.8535 0)
(155.183 -0.295907 0)
(137.748 -4.42692 0)
(139.069 -5.01083 0)
(140.269 -0.139901 0)
(143.647 10.4194 0)
(142.86 22.7665 0)
(138.467 27.3256 0)
(132.261 26.7327 0)
(137.06 24.1074 0)
(149.567 20.7023 0)
(146.347 15.6981 0)
(129.383 11.5759 0)
(118.628 7.05817 0)
(-2378.97 0.770328 0)
(-768.9 1.99336 0)
(260.174 -8.69042 0)
(146.926 -11.7222 0)
(-6.50143 -5.58874 0)
(-213.521 0.40503 0)
(-261.315 1.43751 0)
(-260.945 -1.44447 0)
(-224.612 -3.28643 0)
(-166.711 -4.33642 0)
(-97.8471 -1.26175 0)
(-28.6421 3.76363 0)
(38.2561 6.84165 0)
(104.775 10.2859 0)
(173.701 9.89689 0)
(247.655 6.92783 0)
(310.694 -1.09411 0)
(333.705 -13.6418 0)
(340.671 -23.1259 0)
(349.523 -26.7505 0)
(358.16 -26.5473 0)
(347.868 -25.8121 0)
(215.779 -20.6105 0)
(-74.0251 -7.97758 0)
(-140.14 -0.788347 0)
(-145.345 1.81315 0)
(-120.786 1.82382 0)
(-84.8596 -1.96253 0)
(-47.2599 -6.04085 0)
(-9.73273 -5.33199 0)
(26.2528 -2.44915 0)
(58.3564 2.7024 0)
(84.6398 9.16926 0)
(105.396 13.4153 0)
(124.578 17.4736 0)
(147.217 21.2157 0)
(175.573 22.0706 0)
(209.056 20.0344 0)
(248.642 14.7439 0)
(301.409 9.82027 0)
(350.128 9.43789 0)
(362.338 12.6797 0)
(354.682 14.5394 0)
(239.804 14.6227 0)
(10.7652 12.5659 0)
(-37.8717 13.9567 0)
(-45.6366 14.8013 0)
(-33.1271 14.159 0)
(-12.1417 10.0505 0)
(9.66857 3.52918 0)
(32.3281 0.204272 0)
(56.4901 -1.00092 0)
(79.3679 -0.416882 0)
(96.6727 0.782652 0)
(107.365 2.99227 0)
(115.468 4.19823 0)
(126.597 5.64927 0)
(142.402 5.85932 0)
(161.193 4.14059 0)
(182.532 1.80653 0)
(207.711 -1.00538 0)
(244.08 -3.27717 0)
(290.248 -6.0024 0)
(306.546 -8.86337 0)
(298.272 -10.3026 0)
(222.365 -9.27672 0)
(54.5971 -3.33732 0)
(-2.25886 1.69244 0)
(-7.0982 6.09146 0)
(5.81459 8.86206 0)
(28.489 11.0758 0)
(48.4447 9.14545 0)
(63.0943 5.63006 0)
(75.7119 3.44316 0)
(86.816 2.85875 0)
(96.5754 3.69665 0)
(105.591 6.08751 0)
(115.322 7.67082 0)
(126.755 10.1649 0)
(140.353 11.893 0)
(154.467 12.1999 0)
(168.328 11.4588 0)
(183.593 9.63222 0)
(206.783 7.50204 0)
(243.015 5.24419 0)
(262.843 0.0895139 0)
(263.064 -3.72509 0)
(239.388 -6.41782 0)
(142.634 -4.90612 0)
(40.402 -0.524019 0)
(25.694 3.84551 0)
(30.2383 6.1811 0)
(45.81 8.6348 0)
(67.0001 9.1129 0)
(82.6947 6.34906 0)
(91.803 3.30274 0)
(95.1396 1.28911 0)
(95.439 -0.379751 0)
(98.2013 -0.843505 0)
(107.193 -0.75219 0)
(122.188 -1.17949 0)
(138.545 -0.673032 0)
(151.804 -0.640004 0)
(163.323 -0.365521 0)
(173.52 -0.0931287 0)
(187.87 0.146461 0)
(213.303 0.761553 0)
(236.623 1.11725 0)
(238.908 -0.0998929 0)
(228.224 -1.10632 0)
(179.834 -2.33293 0)
(84.1471 -3.60812 0)
(47.2103 -4.36522 0)
(48.707 -4.54041 0)
(59.9237 -5.25776 0)
(78.9029 -5.73528 0)
(97.3791 -6.81166 0)
(107.48 -8.06711 0)
(110.703 -9.0557 0)
(109.328 -10.8015 0)
(109.033 -13.1794 0)
(114.116 -14.7148 0)
(125.815 -16.5372 0)
(141.26 -17.1972 0)
(154.943 -16.7464 0)
(164.702 -15.9628 0)
(172.227 -15.2483 0)
(181.315 -14.436 0)
(197.082 -13.6277 0)
(219.284 -12.9136 0)
(228.869 -12.7727 0)
(228.024 -12.6178 0)
(212.514 -12.2958 0)
(151.952 -12.0561 0)
(83.5478 -11.5766 0)
(71.8014 -10.6051 0)
(74.1237 -9.95298 0)
(81.9009 -9.20848 0)
(96.1971 -8.49857 0)
(108.74 -8.29591 0)
(113.816 -8.16003 0)
(114.538 -7.0989 0)
(115.588 -6.01894 0)
(119.529 -5.06895 0)
(127.844 -3.99023 0)
(140.717 -2.90984 0)
(155.264 -2.14046 0)
(166.114 -1.70399 0)
(171.89 -1.48265 0)
(175.8 -1.64005 0)
(180.678 -2.4007 0)
(190.01 -3.60223 0)
(206.905 -5.08549 0)
(217.453 -6.50999 0)
(218.76 -7.42192 0)
(210.563 -8.28033 0)
(172.56 -8.31602 0)
(104.246 -7.16448 0)
(78.0582 -6.33118 0)
(76.5725 -6.09934 0)
(81.1535 -5.83899 0)
(93.5517 -5.71302 0)
(109.647 -6.28624 0)
(118.486 -6.60235 0)
(120.426 -6.14169 0)
(119.697 -5.39225 0)
(119.658 -4.42123 0)
(122.151 -3.77504 0)
(128.606 -2.64341 0)
(139.489 -0.822571 0)
(151.964 0.679519 0)
(161.157 1.5576 0)
(166.91 3.14525 0)
(172.376 4.58714 0)
(180.758 5.66998 0)
(194.552 6.6965 0)
(205.02 7.83667 0)
(209.166 9.10907 0)
(205.644 10.4549 0)
(181.85 11.9735 0)
(122.917 13.6604 0)
(86.915 15.2648 0)
(83.2007 16.4768 0)
(85.8755 17.6075 0)
(94.4773 18.4727 0)
(107.895 19.1099 0)
(115.048 18.9796 0)
(116.406 18.2484 0)
(116.271 17.3715 0)
(115.672 16.1803 0)
(116.348 15.0368 0)
(118.73 13.4956 0)
(123.957 11.9858 0)
(134.548 10.3855 0)
(149.094 8.30759 0)
(160.026 6.33505 0)
(165.001 4.78857 0)
(168.601 3.60783 0)
(173.423 2.48041 0)
(181.139 1.48339 0)
(190.891 0.513681 0)
(196.806 -0.489045 0)
(196.798 -1.59452 0)
(185.058 -3.04979 0)
(145.331 -4.48075 0)
(96.2193 -5.31187 0)
(83.0458 -5.36234 0)
(83.7999 -5.45456 0)
(89.7301 -5.88941 0)
(103.172 -6.72784 0)
(115.519 -6.93301 0)
(119.105 -6.26331 0)
(119.325 -5.37059 0)
(117.678 -3.45832 0)
(116.966 -0.50121 0)
(118.489 2.77935 0)
(122.173 6.09509 0)
(127.543 9.21324 0)
(134.975 11.6042 0)
(144.912 12.7213 0)
(154.699 12.5555 0)