/*--------------------------------*- C++ -*----------------------------------*\
| =========                 |                                                 |
| \\      /  F ield         | OpenFOAM: The Open Source CFD Toolbox           |
|  \\    /   O peration     | Version:  2306                                  |
|   \\  /    A nd           | Website:  www.openfoam.com                      |
|    \\/     M anipulation  |                                                 |
\*---------------------------------------------------------------------------*/
FoamFile
{
    version     2.0;
    format      ascii;
    arch        "LSB;label=32;scalar=64";
    class       volVectorField;
    location    "0.15";
    object      U;
}
// * * * * * * * * * * * * * * * * * * * * * * * * * * * * * * * * * * * * * //

dimensions      [0 1 -1 0 0 0 0];

internalField   nonuniform List<vector> 
6000
(
(500 1.27734e-13 0)
(500 1.38453e-13 0)
(500 6.78642e-14 0)
(500 2.66586e-15 0)
(500 3.29964e-14 0)
(500 -1.09884e-14 0)
(500 -3.52004e-14 0)
(500 -5.51554e-14 0)
(500 -1.25168e-13 0)
(500 -1.06106e-13 0)
(500 -9.04792e-14 0)
(500 -1.17709e-14 0)
(500 -3.67289e-14 0)
(500 -2.34903e-14 0)
(500 -3.11357e-14 0)
(500 -4.00074e-15 0)
(500 3.71348e-16 0)
(500 4.9224e-14 0)
(500 3.24216e-14 0)
(500 -4.05746e-14 0)
(500 6.48284e-14 0)
(500 -2.75957e-15 0)
(500 -1.2186e-13 0)
(500 -7.27877e-14 0)
(500 -1.72669e-14 0)
(500 9.23371e-14 0)
(500 7.14652e-14 0)
(500 1.66797e-13 0)
(500 2.08225e-13 0)
(500 2.65842e-13 0)
(500 2.7573e-13 0)
(500 1.36954e-13 0)
(500 1.7669e-13 0)
(500 1.22738e-13 0)
(500 1.41424e-13 0)
(500 7.19648e-14 0)
(500 9.37186e-14 0)
(500 9.16644e-14 0)
(500 8.09135e-14 0)
(500 1.03876e-13 0)
(500 9.72295e-15 0)
(500 2.9449e-14 0)
(500 7.74371e-14 0)
(500 3.054e-13 0)
(500 2.83837e-13 0)
(500 9.2633e-14 0)
(500 -1.21542e-14 0)
(500 -3.12971e-14 0)
(500 -8.53967e-14 0)
(500 -1.93525e-13 0)
(500 -6.36644e-14 0)
(500 -8.33017e-14 0)
(500 -1.58486e-13 0)
(500 -1.18577e-13 0)
(500 -1.49341e-13 0)
(500 -7.86123e-16 0)
(500 -1.13071e-13 0)
(500 -8.51131e-15 0)
(500 4.95483e-14 0)
(500 -7.00105e-13 0)
(500 1.12667e-12 0)
(500 3.43232e-12 0)
(500 -2.32312e-11 0)
(500 2.53725e-11 0)
(500 3.40422e-10 0)
(500 -2.2342e-09 0)
(500 8.29594e-09 0)
(500 -1.30888e-08 0)
(500 -2.06748e-09 0)
(500 1.32357e-07 0)
(500 -3.49709e-07 0)
(499.999 4.68663e-07 0)
(499.998 1.38245e-06 0)
(499.995 -5.90116e-06 0)
(499.99 1.34452e-05 0)
(499.978 8.63698e-07 0)
(499.954 -5.32173e-05 0)
(499.908 0.000171423 0)
(499.828 -0.00014655 0)
(499.7 -0.000200467 0)
(499.534 0.000767492 0)
(499.4 -0.000436899 0)
(499.362 -7.50577e-05 0)
(499.363 3.11211e-05 0)
(499.38 0.000121419 0)
(499.431 0.00024047 0)
(499.535 0.000119298 0)
(499.701 -0.000335849 0)
(499.928 0.00044097 0)
(500.204 0.000666327 0)
(500.514 -0.00157995 0)
(500.846 -0.000617329 0)
(501.182 0.00343583 0)
(501.519 0.00138425 0)
(501.854 -0.00355101 0)
(502.182 -0.000762527 0)
(502.494 0.00585713 0)
(502.794 0.00273104 0)
(503.085 -0.0053092 0)
(503.362 -0.00336369 0)
(503.616 0.00606263 0)
(503.846 0.00571837 0)
(504.06 -0.00378043 0)
(504.253 -0.00519462 0)
(504.418 0.00214775 0)
(504.554 0.0058957 0)
(504.671 -9.32126e-05 0)
(504.773 -0.00426281 0)
(504.86 -0.00210071 0)
(504.931 0.00275063 0)
(504.991 0.00318331 0)
(505.048 -0.000860554 0)
(505.103 -0.00274334 0)
(505.156 -0.00124493 0)
(505.206 0.00140578 0)
(505.251 0.00128675 0)
(505.289 -0.000778329 0)
(505.309 -0.00117931 0)
(505.313 -0.000499678 0)
(505.312 0.000326179 0)
(505.31 0.000523401 0)
(505.308 0.000343232 0)
(505.304 -0.000199496 0)
(505.299 -0.000499584 0)
(505.289 -0.000318649 0)
(505.276 0.000100467 0)
(505.258 0.000383869 0)
(505.237 0.000156973 0)
(505.214 -0.000225812 0)
(505.193 -0.000291131 0)
(505.174 -4.34431e-05 0)
(505.159 5.56656e-05 0)
(505.148 1.82891e-05 0)
(505.14 -3.01629e-05 0)
(505.136 -3.59229e-05 0)
(505.132 -5.55778e-06 0)
(505.127 -7.52902e-06 0)
(505.123 -7.07497e-05 0)
(505.119 -0.000139732 0)
(505.115 -6.81819e-05 0)
(505.112 3.86109e-05 0)
(505.11 0.000124246 0)
(505.11 0.000210639 0)
(505.111 0.000144496 0)
(505.111 2.44239e-05 0)
(505.112 -4.34576e-05 0)
(505.112 -0.000138798 0)
(505.113 -0.000153413 0)
(505.114 -6.78053e-05 0)
(505.117 3.52484e-05 0)
(505.122 9.64426e-05 0)
(505.129 0.000118467 0)
(505.138 9.61764e-05 0)
(505.147 6.0093e-06 0)
(505.158 -5.37165e-05 0)
(505.168 -8.3673e-05 0)
(505.177 -6.70635e-05 0)
(505.184 3.80926e-05 0)
(505.191 8.83292e-05 0)
(505.197 8.96402e-05 0)
(505.201 7.66349e-05 0)
(505.203 9.77407e-06 0)
(505.204 -7.44474e-05 0)
(505.204 -0.00011125 0)
(505.203 -0.000116016 0)
(505.201 -6.65566e-05 0)
(505.198 3.14795e-05 0)
(505.195 7.09802e-05 0)
(505.191 9.03489e-05 0)
(505.186 8.22038e-05 0)
(505.18 3.57983e-05 0)
(505.175 -2.93327e-05 0)
(505.168 -6.15376e-05 0)
(505.162 -6.93164e-05 0)
(505.157 -7.69187e-05 0)
(505.153 -7.24119e-05 0)
(505.149 -4.9942e-05 0)
(505.147 -1.71031e-05 0)
(505.145 8.11936e-06 0)
(505.144 2.50797e-05 0)
(505.143 3.32617e-05 0)
(505.141 3.8166e-05 0)
(505.138 4.07098e-05 0)
(505.135 4.30966e-05 0)
(505.13 4.80786e-05 0)
(505.125 4.73322e-05 0)
(505.119 3.23797e-05 0)
(505.116 5.78874e-06 0)
(505.115 8.43724e-06 0)
(505.116 2.54414e-05 0)
(505.116 3.52791e-05 0)
(505.117 4.40478e-05 0)
(505.12 4.74533e-05 0)
(505.124 5.94635e-06 0)
(505.13 -3.07087e-05 0)
(505.138 -4.33941e-05 0)
(505.148 -4.64188e-05 0)
(505.158 -4.92699e-05 0)
(505.167 -4.26316e-05 0)
(505.174 -1.84432e-05 0)
(505.178 5.04525e-05 0)
(505.182 8.30385e-05 0)
(505.186 6.14105e-05 0)
(505.19 4.03952e-05 0)
(505.194 -1.20402e-05 0)
(505.198 -6.04806e-05 0)
(505.2 -6.98939e-05 0)
(505.201 -2.7048e-05 0)
(505.201 -5.32095e-06 0)
(505.2 2.91817e-05 0)
(505.199 6.0276e-05 0)
(505.197 5.05e-05 0)
(505.195 1.79802e-05 0)
(505.192 -2.32547e-05 0)
(505.188 -6.1557e-05 0)
(505.183 -6.6014e-05 0)
(505.177 -2.87537e-05 0)
(505.17 7.92447e-06 0)
(505.163 5.93839e-05 0)
(505.157 8.40498e-05 0)
(505.153 8.23293e-05 0)
(505.15 4.36633e-05 0)
(505.149 -3.48218e-05 0)
(505.148 -8.6808e-05 0)
(505.147 -7.17431e-05 0)
(505.146 -4.23406e-05 0)
(505.144 1.42064e-05 0)
(505.142 6.75063e-05 0)
(505.14 7.27577e-05 0)
(505.138 6.10601e-05 0)
(505.136 2.79552e-05 0)
(505.133 -3.83108e-05 0)
(505.131 -9.91481e-05 0)
(505.126 -0.000111661 0)
(505.12 -0.000103677 0)
(505.115 -5.49073e-05 0)
(505.112 2.40489e-05 0)
(505.111 5.38843e-05 0)
(505.111 4.81571e-05 0)
(505.112 3.90073e-05 0)
(505.115 1.61443e-05 0)
(505.121 5.77925e-06 0)
(505.129 4.10274e-06 0)
(505.139 1.10801e-05 0)
(505.149 1.91121e-05 0)
(505.16 7.14817e-05 0)
(505.169 0.000118323 0)
(505.177 0.000109745 0)
(505.182 3.89795e-05 0)
(505.185 -5.04572e-05 0)
(505.188 -0.000109427 0)
(505.191 -0.000113899 0)
(505.194 -9.72473e-05 0)
(505.197 -2.5105e-05 0)
(505.199 3.6639e-05 0)
(505.201 4.78436e-05 0)
(505.203 2.96153e-05 0)
(505.204 -3.71605e-05 0)
(505.204 -8.7492e-05 0)
(505.204 -9.93154e-05 0)
(505.203 -7.5854e-05 0)
(505.2 4.02786e-05 0)
(505.196 0.000141374 0)
(505.191 0.000183177 0)
(505.184 0.000188108 0)
(505.177 0.000108891 0)
(505.171 -7.487e-05 0)
(505.165 -0.000189724 0)
(505.159 -0.000210978 0)
(505.154 -0.000199182 0)
(505.151 -9.75938e-05 0)
(505.148 6.298e-05 0)
(505.146 0.00012331 0)
(505.144 0.00013515 0)
(505.143 0.000104609 0)
(505.143 9.98403e-06 0)
(505.143 -8.94087e-05 0)
(505.142 -0.000124543 0)
(505.14 -0.000131491 0)
(505.137 -8.1233e-05 0)
(505.133 1.77013e-05 0)
(505.128 6.22603e-05 0)
(505.121 0.000109581 0)
(505.114 0.000111943 0)
(505.108 -2.69399e-05 0)
(505.104 -0.000131056 0)
(505.103 -0.000192801 0)
(505.102 -0.000167913 0)
(505.103 -0.000110558 0)
(505.104 9.42261e-05 0)
(505.107 0.000229745 0)
(505.113 0.00031337 0)
(505.123 0.000363067 0)
(505.136 0.000352318 0)
(505.151 0.000134014 0)
(505.165 -0.000120085 0)
(505.177 -0.000271895 0)
(505.185 -0.000348369 0)
(505.188 -0.000310987 0)
(505.191 -0.000151399 0)
(500 6.12122e-14 0)
(500 2.73991e-14 0)
(500 1.91149e-14 0)
(500 -1.38422e-13 0)
(500 -1.28058e-13 0)
(500 -1.58408e-13 0)
(500 -2.40021e-13 0)
(500 -1.57238e-13 0)
(500 -2.19772e-13 0)
(500 -1.16924e-13 0)
(500 -1.88562e-13 0)
(500 -4.26882e-14 0)
(500 4.77428e-15 0)
(500 1.89584e-14 0)
(500 2.2421e-14 0)
(500 -2.18814e-15 0)
(500 1.0678e-14 0)
(500 1.02109e-13 0)
(500 9.20871e-14 0)
(500 -1.52023e-13 0)
(500 -2.4159e-14 0)
(500 -1.28774e-13 0)
(500 -1.89636e-13 0)
(500 -1.10767e-13 0)
(500 -2.59284e-14 0)
(500 1.71119e-13 0)
(500 1.25224e-13 0)
(500 3.54558e-13 0)
(500 4.86265e-13 0)
(500 5.08029e-13 0)
(500 2.98866e-13 0)
(500 1.9429e-13 0)
(500 2.70478e-13 0)
(500 2.89113e-13 0)
(500 2.04041e-13 0)
(500 2.09754e-13 0)
(500 2.14622e-13 0)
(500 2.12847e-13 0)
(500 1.41645e-13 0)
(500 1.84243e-13 0)
(500 6.66085e-14 0)
(500 1.65125e-13 0)
(500 1.51825e-13 0)
(500 2.03035e-13 0)
(500 2.96254e-13 0)
(500 1.44803e-13 0)
(500 -1.64736e-14 0)
(500 -1.45554e-13 0)
(500 -3.44121e-13 0)
(500 -5.63928e-13 0)
(500 -4.57928e-13 0)
(500 -3.60422e-13 0)
(500 -4.22204e-13 0)
(500 -2.66334e-13 0)
(500 -1.13732e-13 0)
(500 -3.09779e-14 0)
(500 -1.29671e-13 0)
(500 -8.42911e-14 0)
(500 4.27765e-13 0)
(500 -2.57676e-12 0)
(500 5.3756e-12 0)
(500 -1.54896e-12 0)
(500 -2.7002e-11 0)
(500 5.03092e-11 0)
(500 4.83796e-10 0)
(500 -3.50292e-09 0)
(500 1.17193e-08 0)
(500 -2.06098e-08 0)
(500 -1.81361e-08 0)
(500 2.12064e-07 0)
(500 -5.93261e-07 0)
(499.999 4.42302e-07 0)
(499.998 2.53245e-06 0)
(499.995 -1.04602e-05 0)
(499.99 1.71594e-05 0)
(499.978 4.77004e-06 0)
(499.954 -8.81642e-05 0)
(499.908 0.000192209 0)
(499.828 -7.23803e-05 0)
(499.7 -0.00051074 0)
(499.534 0.00120459 0)
(499.4 -0.000753773 0)
(499.362 -0.000271558 0)
(499.363 -7.7677e-05 0)
(499.38 0.000110035 0)
(499.431 0.000332198 0)
(499.535 0.00021116 0)
(499.701 -9.76654e-05 0)
(499.928 0.000485821 0)
(500.204 -0.000206231 0)
(500.515 -0.0020823 0)
(500.845 1.95704e-06 0)
(501.182 0.00319599 0)
(501.521 -0.000187113 0)
(501.855 -0.00417943 0)
(502.18 0.000824981 0)
(502.493 0.00645848 0)
(502.797 0.000749016 0)
(503.087 -0.00716162 0)
(503.361 -0.00271844 0)
(503.614 0.00730935 0)
(503.849 0.00484738 0)
(504.064 -0.00502639 0)
(504.253 -0.0053807 0)
(504.416 0.00388414 0)
(504.555 0.00599072 0)
(504.675 -0.000599121 0)
(504.774 -0.00519783 0)
(504.859 -0.0020894 0)
(504.93 0.00355282 0)
(504.993 0.00360112 0)
(505.051 -0.000569746 0)
(505.104 -0.00322564 0)
(505.156 -0.00128867 0)
(505.206 0.00186864 0)
(505.252 0.00185971 0)
(505.289 -0.000578196 0)
(505.309 -0.00135644 0)
(505.313 -0.000554768 0)
(505.312 0.000496258 0)
(505.31 0.000740745 0)
(505.308 0.000520709 0)
(505.305 -0.000310167 0)
(505.299 -0.000833488 0)
(505.289 -0.00041363 0)
(505.276 0.000372984 0)
(505.258 0.000829821 0)
(505.236 0.000379031 0)
(505.214 -0.000357574 0)
(505.193 -0.000597625 0)
(505.174 -0.000450147 0)
(505.159 -0.000205864 0)
(505.148 2.65249e-05 0)
(505.14 0.000262778 0)
(505.135 0.00034328 0)
(505.131 8.74106e-05 0)
(505.127 -0.000106111 0)
(505.123 -0.000322861 0)
(505.119 -0.00057196 0)
(505.115 -0.000453388 0)
(505.112 -3.3539e-05 0)
(505.11 0.000331922 0)
(505.11 0.000673029 0)
(505.11 0.000686367 0)
(505.111 0.000309314 0)
(505.112 6.49098e-06 0)
(505.112 -0.000327428 0)
(505.113 -0.000570222 0)
(505.115 -0.000418304 0)
(505.117 -7.35974e-05 0)
(505.122 0.000158769 0)
(505.129 0.000282064 0)
(505.138 0.000346209 0)
(505.147 0.000206757 0)
(505.157 -8.43634e-06 0)
(505.167 -0.000205037 0)
(505.177 -0.000396138 0)
(505.184 -0.000231377 0)
(505.191 0.00014654 0)
(505.198 0.000183151 0)
(505.201 0.000236947 0)
(505.203 0.000243376 0)
(505.204 6.88877e-05 0)
(505.204 -0.000137141 0)
(505.203 -0.000232443 0)
(505.201 -0.000293285 0)
(505.199 -0.000153354 0)
(505.195 -4.69408e-05 0)
(505.191 3.5783e-05 0)
(505.186 0.000146043 0)
(505.18 0.000201827 0)
(505.174 0.000134742 0)
(505.168 5.32364e-05 0)
(505.162 2.65652e-05 0)
(505.157 -4.57237e-05 0)
(505.153 -0.00013664 0)
(505.149 -0.000159965 0)
(505.147 -0.000134433 0)
(505.145 -9.6766e-05 0)
(505.144 2.47717e-05 0)
(505.143 0.000109812 0)
(505.141 0.000109936 0)
(505.138 0.00010465 0)
(505.134 9.20043e-05 0)
(505.13 4.90334e-05 0)
(505.125 2.95521e-05 0)
(505.119 3.07907e-06 0)
(505.116 -4.86133e-05 0)
(505.115 -8.41115e-06 0)
(505.116 6.65017e-05 0)
(505.116 9.92001e-05 0)
(505.117 0.000132574 0)
(505.12 0.000175253 0)
(505.124 0.000119415 0)
(505.13 -1.02664e-05 0)
(505.138 -8.20421e-05 0)
(505.148 -0.000138911 0)
(505.159 -0.00021143 0)
(505.168 -0.000270586 0)
(505.174 -0.000242904 0)
(505.179 3.89116e-05 0)
(505.182 0.000280744 0)
(505.186 0.000268004 0)
(505.19 0.000219206 0)
(505.194 9.14841e-05 0)
(505.198 -0.000127935 0)
(505.2 -0.000202334 0)
(505.201 -0.000137815 0)
(505.201 -8.99614e-05 0)
(505.2 -2.77113e-06 0)
(505.199 0.000153821 0)
(505.197 0.000165445 0)
(505.195 0.000158714 0)
(505.192 8.86785e-05 0)
(505.188 -0.000123634 0)
(505.183 -0.000268204 0)
(505.177 -0.00023102 0)
(505.17 -0.000158246 0)
(505.163 3.25315e-05 0)
(505.157 0.000234589 0)
(505.153 0.000323185 0)
(505.15 0.000353919 0)
(505.148 0.000153607 0)
(505.148 -0.000205431 0)
(505.147 -0.000254729 0)
(505.146 -0.00024563 0)
(505.144 -0.000163043 0)
(505.142 7.32191e-05 0)
(505.14 0.000217347 0)
(505.138 0.000264452 0)
(505.136 0.000275512 0)
(505.133 0.000204617 0)
(505.13 -8.09855e-05 0)
(505.126 -0.000296312 0)
(505.12 -0.000330022 0)
(505.115 -0.00030334 0)
(505.112 -0.000166995 0)
(505.111 -2.85312e-05 0)
(505.111 4.96178e-05 0)
(505.112 8.63772e-05 0)
(505.115 8.74642e-05 0)
(505.121 5.02074e-05 0)
(505.129 3.17629e-05 0)
(505.139 2.02322e-05 0)
(505.149 3.13552e-05 0)
(505.16 0.000149294 0)
(505.169 0.000346831 0)
(505.177 0.000391106 0)
(505.182 0.000309968 0)
(505.185 0.000123017 0)
(505.188 -0.000111417 0)
(505.191 -0.000216877 0)
(505.194 -0.000255047 0)
(505.197 -0.000229683 0)
(505.199 -3.53873e-05 0)
(505.201 5.04237e-05 0)
(505.203 5.52324e-05 0)
(505.204 -6.19877e-05 0)
(505.204 -0.000197291 0)
(505.204 -0.000269925 0)
(505.203 -0.000303236 0)
(505.2 -0.00019585 0)
(505.196 4.99024e-05 0)
(505.191 0.000206995 0)
(505.184 0.000432714 0)
(505.177 0.000559929 0)
(505.171 0.000349899 0)
(505.165 -4.6201e-05 0)
(505.159 -0.000210018 0)
(505.154 -0.000390406 0)
(505.151 -0.000461358 0)
(505.148 -0.00025137 0)
(505.146 -1.71407e-05 0)
(505.144 0.000115786 0)
(505.143 0.000259965 0)
(505.143 0.00034608 0)
(505.143 0.000141345 0)
(505.142 -7.59264e-05 0)
(505.14 -0.000203761 0)
(505.137 -0.000329438 0)
(505.133 -0.000242681 0)
(505.128 -0.00011819 0)
(505.121 0.000109957 0)
(505.114 0.00032183 0)
(505.108 0.000271579 0)
(505.103 7.50794e-05 0)
(505.102 -0.000195163 0)
(505.102 -0.000377968 0)
(505.102 -0.000512964 0)
(505.104 -0.000369601 0)
(505.108 -5.73911e-05 0)
(505.114 0.000284768 0)
(505.123 0.00070061 0)
(505.136 0.00095981 0)
(505.151 0.000916769 0)
(505.165 0.000587778 0)
(505.176 7.89411e-05 0)
(505.184 -0.000408851 0)
(505.187 -0.000941755 0)
(505.191 -0.000825877 0)
(500 -7.51774e-14 0)
(500 -8.46771e-14 0)
(500 -1.81872e-13 0)
(500 -2.02808e-13 0)
(500 -2.19797e-13 0)
(500 -3.36972e-13 0)
(500 -4.15538e-13 0)
(500 -2.12756e-13 0)
(500 -1.84569e-13 0)
(500 -1.35999e-13 0)
(500 -1.88873e-13 0)
(500 -2.24267e-13 0)
(500 -1.02528e-13 0)
(500 -2.05977e-13 0)
(500 -1.87638e-13 0)
(500 -8.74003e-14 0)
(500 -2.43215e-14 0)
(500 -1.86447e-14 0)
(500 -3.28314e-14 0)
(500 -3.17881e-13 0)
(500 -2.54336e-13 0)
(500 -2.08215e-13 0)
(500 -1.79241e-13 0)
(500 -1.36759e-13 0)
(500 9.72135e-14 0)
(500 2.01167e-13 0)
(500 1.91807e-13 0)
(500 3.07173e-13 0)
(500 4.01603e-13 0)
(500 3.77346e-13 0)
(500 3.66797e-13 0)
(500 4.2393e-13 0)
(500 5.72141e-13 0)
(500 5.56132e-13 0)
(500 4.73424e-13 0)
(500 4.5051e-13 0)
(500 3.4423e-13 0)
(500 3.02817e-13 0)
(500 1.98083e-13 0)
(500 2.78427e-13 0)
(500 3.4166e-13 0)
(500 3.37543e-13 0)
(500 2.60614e-13 0)
(500 1.55733e-13 0)
(500 1.67837e-13 0)
(500 2.90612e-14 0)
(500 1.52364e-14 0)
(500 -1.88672e-13 0)
(500 -5.18912e-13 0)
(500 -8.087e-13 0)
(500 -7.36514e-13 0)
(500 -5.54749e-13 0)
(500 -5.44264e-13 0)
(500 -3.70574e-13 0)
(500 1.27994e-14 0)
(500 1.31667e-13 0)
(500 1.15498e-13 0)
(500 -3.48632e-14 0)
(500 6.70098e-13 0)
(500 -3.61457e-12 0)
(500 8.48129e-12 0)
(500 -5.48357e-12 0)
(500 -3.88487e-11 0)
(500 9.11029e-11 0)
(500 6.02242e-10 0)
(500 -4.7751e-09 0)
(500 1.73253e-08 0)
(500 -3.21356e-08 0)
(500 -1.26753e-08 0)
(500 2.73409e-07 0)
(500 -8.02443e-07 0)
(499.999 6.90127e-07 0)
(499.998 3.20568e-06 0)
(499.995 -1.40556e-05 0)
(499.99 2.43293e-05 0)
(499.978 3.32365e-06 0)
(499.954 -0.000112917 0)
(499.908 0.000244697 0)
(499.828 -5.47781e-05 0)
(499.7 -0.000753775 0)
(499.534 0.00156229 0)
(499.4 -0.000686556 0)
(499.362 -0.000463329 0)
(499.363 -0.000262913 0)
(499.38 1.55535e-05 0)
(499.431 0.000350235 0)
(499.535 0.000208946 0)
(499.701 0.000186892 0)
(499.928 0.000899415 0)
(500.204 -0.000886961 0)
(500.515 -0.00257869 0)
(500.845 0.00141317 0)
(501.182 0.00329006 0)
(501.522 -0.00259952 0)
(501.856 -0.00456984 0)
(502.179 0.00407311 0)
(502.492 0.00697686 0)
(502.798 -0.00247287 0)
(503.087 -0.00887034 0)
(503.36 0.000243672 0)
(503.612 0.00899894 0)
(503.85 0.0022943 0)
(504.064 -0.00747473 0)
(504.253 -0.00391812 0)
(504.415 0.00631459 0)
(504.555 0.00517795 0)
(504.675 -0.00267532 0)
(504.774 -0.00604586 0)
(504.858 -0.000918658 0)
(504.929 0.00459251 0)
(504.993 0.00313388 0)
(505.052 -0.00150182 0)
(505.105 -0.00361656 0)
(505.156 -0.000502044 0)
(505.206 0.00246363 0)
(505.253 0.00156159 0)
(505.29 -0.0010704 0)
(505.309 -0.00172258 0)
(505.313 -0.000667659 0)
(505.312 0.000874688 0)
(505.311 0.00120609 0)
(505.309 0.000770419 0)
(505.305 -0.000481798 0)
(505.299 -0.000949797 0)
(505.29 -0.000505426 0)
(505.276 0.000492629 0)
(505.258 0.00105632 0)
(505.236 0.000407705 0)
(505.214 -0.000496204 0)
(505.193 -0.000504674 0)
(505.175 -0.000337368 0)
(505.16 -0.000418832 0)
(505.149 -0.000229284 0)
(505.141 0.000195983 0)
(505.135 0.000588947 0)
(505.131 0.000554034 0)
(505.127 0.000113733 0)
(505.123 -0.000412157 0)
(505.119 -0.000846223 0)
(505.116 -0.000870856 0)
(505.113 -0.000487185 0)
(505.111 0.000256762 0)
(505.11 0.000782732 0)
(505.11 0.000987121 0)
(505.111 0.000674663 0)
(505.111 0.000147436 0)
(505.112 -0.000308681 0)
(505.113 -0.000624617 0)
(505.115 -0.000628567 0)
(505.118 -0.000335281 0)
(505.123 1.25039e-05 0)
(505.13 0.000269923 0)
(505.138 0.000426682 0)
(505.147 0.000389703 0)
(505.157 0.000145256 0)
(505.167 -0.000133723 0)
(505.176 -0.000385994 0)
(505.184 -0.000463015 0)
(505.192 -8.26489e-05 0)
(505.198 0.000184073 0)
(505.202 0.000232585 0)
(505.203 0.000291762 0)
(505.204 0.000168774 0)
(505.204 -4.79084e-05 0)
(505.203 -0.000189682 0)
(505.201 -0.000304148 0)
(505.199 -0.000174429 0)
(505.196 -7.46296e-05 0)
(505.191 3.02945e-05 0)
(505.186 0.000154398 0)
(505.18 0.000195076 0)
(505.174 6.67637e-05 0)
(505.168 3.18317e-05 0)
(505.162 1.698e-05 0)
(505.157 -2.47834e-05 0)
(505.153 -0.000114433 0)
(505.149 -0.000207952 0)
(505.147 -0.000231705 0)
(505.145 -0.000221427 0)
(505.144 -6.13341e-05 0)
(505.143 0.000122047 0)
(505.141 0.000170196 0)
(505.138 0.000182818 0)
(505.134 0.000169388 0)
(505.13 0.000127361 0)
(505.125 0.000118193 0)
(505.119 8.26598e-05 0)
(505.116 -9.84349e-06 0)
(505.115 3.47388e-06 0)
(505.116 5.83608e-05 0)
(505.116 8.97421e-05 0)
(505.117 0.000125453 0)
(505.12 0.000156477 0)
(505.124 0.000109196 0)
(505.13 -6.269e-05 0)
(505.138 -0.000163717 0)
(505.148 -0.000221886 0)
(505.158 -0.000285037 0)
(505.167 -0.000311684 0)
(505.174 -0.000265737 0)
(505.179 -3.28562e-05 0)
(505.182 0.000328953 0)
(505.186 0.000349271 0)
(505.189 0.000237152 0)
(505.194 0.000119063 0)
(505.198 -0.000116597 0)
(505.2 -0.000242254 0)
(505.201 -0.000104533 0)
(505.201 -4.52484e-05 0)
(505.201 1.80274e-05 0)
(505.199 0.000180951 0)
(505.197 0.000172729 0)
(505.195 0.000120362 0)
(505.192 3.8491e-05 0)
(505.187 -0.000138272 0)
(505.183 -0.000304396 0)
(505.177 -0.00023128 0)
(505.17 -0.000117138 0)
(505.164 2.95658e-05 0)
(505.158 0.000244071 0)
(505.153 0.000350434 0)
(505.15 0.000337049 0)
(505.148 0.00019053 0)
(505.147 -0.000222731 0)
(505.147 -0.000336197 0)
(505.146 -0.000265829 0)
(505.144 -0.000198904 0)
(505.143 -7.7516e-06 0)
(505.141 0.000231331 0)
(505.138 0.000350709 0)
(505.136 0.000344387 0)
(505.133 0.000284689 0)
(505.13 8.62858e-05 0)
(505.125 -0.000294552 0)
(505.12 -0.000442206 0)
(505.115 -0.00035191 0)
(505.112 -0.000183329 0)
(505.111 -4.97167e-05 0)
(505.111 4.33274e-05 0)
(505.112 8.65999e-05 0)
(505.115 7.75551e-05 0)
(505.121 2.96407e-05 0)
(505.129 4.63919e-06 0)
(505.139 -4.1453e-05 0)
(505.149 -3.61743e-05 0)
(505.16 0.000129566 0)
(505.17 0.000406813 0)
(505.177 0.000478089 0)
(505.182 0.000351016 0)
(505.185 0.000180848 0)
(505.188 -7.08682e-05 0)
(505.191 -0.000251721 0)
(505.194 -0.000303639 0)
(505.197 -0.000300235 0)
(505.199 -0.000103596 0)
(505.202 2.75039e-05 0)
(505.203 8.86437e-06 0)
(505.204 -0.000112895 0)
(505.204 -0.000250267 0)
(505.204 -0.000283361 0)
(505.203 -0.000301991 0)
(505.2 -0.000167631 0)
(505.196 -3.5747e-05 0)
(505.191 0.000163357 0)
(505.185 0.000403736 0)
(505.178 0.000571873 0)
(505.171 0.000524524 0)
(505.164 0.00025024 0)
(505.158 -1.70674e-05 0)
(505.154 -0.000318555 0)
(505.15 -0.000412294 0)
(505.148 -0.000297623 0)
(505.146 -0.000186219 0)
(505.145 -0.000112544 0)
(505.144 9.02223e-05 0)
(505.143 0.000380023 0)
(505.142 0.000350432 0)
(505.141 8.0759e-05 0)
(505.14 -0.000158094 0)
(505.137 -0.00029335 0)
(505.133 -0.000263373 0)
(505.128 -0.000170125 0)
(505.122 -6.61033e-05 0)
(505.115 0.000181594 0)
(505.108 0.000392863 0)
(505.103 0.000350824 0)
(505.102 1.39463e-05 0)
(505.102 -0.000240068 0)
(505.102 -0.00042637 0)
(505.104 -0.000503607 0)
(505.108 -0.000463803 0)
(505.115 -0.000168684 0)
(505.124 0.000514459 0)
(505.137 0.00103337 0)
(505.151 0.00111047 0)
(505.164 0.000966657 0)
(505.175 0.000660079 0)
(505.183 -0.000197131 0)
(505.186 -0.00110725 0)
(505.191 -0.00113326 0)
(500 -1.01445e-14 0)
(500 -8.81198e-14 0)
(500 -1.96827e-13 0)
(500 -2.21863e-13 0)
(500 -2.86961e-13 0)
(500 -4.964e-13 0)
(500 -4.4408e-13 0)
(500 -2.76595e-13 0)
(500 -9.34807e-14 0)
(500 -1.98822e-13 0)
(500 -2.50966e-13 0)
(500 -2.52018e-13 0)
(500 -1.27285e-13 0)
(500 -2.75822e-13 0)
(500 -2.15678e-13 0)
(500 -5.84629e-14 0)
(500 -8.59802e-14 0)
(500 -1.06218e-13 0)
(500 -3.40583e-13 0)
(500 -4.46722e-13 0)
(500 -3.33127e-13 0)
(500 -2.26037e-13 0)
(500 -1.60123e-13 0)
(500 -6.68698e-14 0)
(500 1.37999e-13 0)
(500 1.6148e-13 0)
(500 3.69579e-13 0)
(500 4.60572e-13 0)
(500 4.44875e-13 0)
(500 2.51952e-13 0)
(500 4.09163e-13 0)
(500 5.78034e-13 0)
(500 6.88529e-13 0)
(500 6.70603e-13 0)
(500 6.22999e-13 0)
(500 6.19627e-13 0)
(500 3.80936e-13 0)
(500 4.39349e-13 0)
(500 3.1605e-13 0)
(500 3.81116e-13 0)
(500 5.16342e-13 0)
(500 3.82249e-13 0)
(500 2.63918e-13 0)
(500 2.17859e-13 0)
(500 4.67626e-14 0)
(500 -2.72522e-15 0)
(500 -3.12102e-14 0)
(500 -1.85938e-13 0)
(500 -4.92118e-13 0)
(500 -7.05322e-13 0)
(500 -6.38558e-13 0)
(500 -6.1777e-13 0)
(500 -4.52982e-13 0)
(500 -4.12734e-13 0)
(500 -8.50901e-14 0)
(500 8.09158e-14 0)
(500 1.33312e-13 0)
(500 8.53236e-14 0)
(500 9.67923e-13 0)
(500 -4.22725e-12 0)
(500 1.03901e-11 0)
(500 -9.31679e-12 0)
(500 -4.43244e-11 0)
(500 1.11548e-10 0)
(500 6.49476e-10 0)
(500 -5.59105e-09 0)
(500 2.10664e-08 0)
(500 -4.15776e-08 0)
(500 -1.57024e-09 0)
(500 2.88423e-07 0)
(500 -8.91574e-07 0)
(499.999 8.0439e-07 0)
(499.998 3.57424e-06 0)
(499.995 -1.60171e-05 0)
(499.99 2.75921e-05 0)
(499.978 3.45959e-06 0)
(499.954 -0.000125959 0)
(499.908 0.000258171 0)
(499.828 -4.24688e-06 0)
(499.7 -0.000942762 0)
(499.534 0.00166046 0)
(499.4 -0.000379672 0)
(499.362 -0.000547799 0)
(499.363 -0.000401041 0)
(499.38 -0.000118604 0)
(499.431 0.000275009 0)
(499.535 0.00014292 0)
(499.701 0.000607607 0)
(499.928 0.00116596 0)
(500.204 -0.00161523 0)
(500.515 -0.00238322 0)
(500.844 0.00293722 0)
(501.182 0.00238523 0)
(501.522 -0.00501165 0)
(501.855 -0.00339784 0)
(502.178 0.00705481 0)
(502.493 0.00583509 0)
(502.798 -0.00591972 0)
(503.087 -0.00852112 0)
(503.359 0.00421077 0)
(503.612 0.00887082 0)
(503.851 -0.00117168 0)
(504.064 -0.00876485 0)
(504.253 -0.000573582 0)
(504.414 0.00786418 0)
(504.556 0.0033767 0)
(504.675 -0.00481989 0)
(504.774 -0.00586497 0)
(504.858 0.00119249 0)
(504.928 0.00488315 0)
(504.994 0.00197374 0)
(505.052 -0.00260682 0)
(505.106 -0.00314639 0)
(505.156 0.000912997 0)
(505.205 0.00272792 0)
(505.253 0.000669752 0)
(505.29 -0.00132966 0)
(505.308 -0.00139693 0)
(505.312 -0.000228078 0)
(505.312 0.00118129 0)
(505.311 0.00127859 0)
(505.309 0.000500177 0)
(505.306 -0.000703135 0)
(505.3 -0.00086826 0)
(505.29 -0.000378199 0)
(505.276 0.000512947 0)
(505.257 0.000886162 0)
(505.236 9.31728e-05 0)
(505.214 -0.000623169 0)
(505.193 -0.000328423 0)
(505.175 -2.17648e-05 0)
(505.161 -0.000217862 0)
(505.15 -0.00013266 0)
(505.142 0.000185293 0)
(505.135 0.000553072 0)
(505.13 0.000601119 0)
(505.126 0.000244028 0)
(505.122 -0.000394919 0)
(505.119 -0.000814998 0)
(505.116 -0.0007717 0)
(505.113 -0.000479877 0)
(505.112 0.00014803 0)
(505.111 0.000782067 0)
(505.11 0.000902855 0)
(505.11 0.000749818 0)
(505.111 0.000203511 0)
(505.112 -0.000386076 0)
(505.113 -0.000639289 0)
(505.115 -0.000751009 0)
(505.118 -0.000509611 0)
(505.123 -5.61033e-05 0)
(505.13 0.000325246 0)
(505.138 0.000530421 0)
(505.147 0.000518457 0)
(505.157 0.000289876 0)
(505.167 -2.80647e-05 0)
(505.176 -0.000388001 0)
(505.185 -0.000518335 0)
(505.192 -0.000321264 0)
(505.198 5.85598e-05 0)
(505.202 0.000256144 0)
(505.203 0.000330592 0)
(505.204 0.000231894 0)
(505.203 -3.91458e-05 0)
(505.203 -0.000217162 0)
(505.201 -0.000331304 0)
(505.199 -0.000137258 0)
(505.196 -1.9159e-05 0)
(505.192 0.000122793 0)
(505.186 0.00020584 0)
(505.181 0.000107982 0)
(505.174 -4.38543e-05 0)
(505.168 -4.87116e-05 0)
(505.162 -3.25884e-05 0)
(505.157 -4.70471e-05 0)
(505.152 -9.44193e-05 0)
(505.149 -0.000149928 0)
(505.147 -0.0001625 0)
(505.146 -0.000148188 0)
(505.145 -8.16008e-05 0)
(505.143 -4.45768e-06 0)
(505.141 6.40763e-05 0)
(505.138 0.000127648 0)
(505.134 0.00019294 0)
(505.13 0.000177001 0)
(505.125 0.000181824 0)
(505.12 0.000186048 0)
(505.116 0.000167049 0)
(505.115 9.1389e-05 0)
(505.116 6.0261e-05 0)
(505.116 5.94046e-05 0)
(505.117 4.4129e-05 0)
(505.12 8.36137e-06 0)
(505.124 -2.08058e-05 0)
(505.13 -6.8171e-05 0)
(505.138 -9.45143e-05 0)
(505.148 -0.000149755 0)
(505.158 -0.000206745 0)
(505.167 -0.000241535 0)
(505.174 -0.000258231 0)
(505.179 -0.000192922 0)
(505.183 0.000132078 0)
(505.186 0.00033244 0)
(505.189 0.000280306 0)
(505.194 0.000213243 0)
(505.197 3.14828e-05 0)
(505.2 -0.000101219 0)
(505.201 -2.95219e-05 0)
(505.201 -3.61242e-05 0)
(505.201 -5.84562e-05 0)
(505.199 3.63025e-05 0)
(505.197 7.93888e-05 0)
(505.195 4.24204e-05 0)
(505.192 1.83591e-05 0)
(505.187 -3.78449e-05 0)
(505.183 -0.000208594 0)
(505.177 -0.000251742 0)
(505.17 -0.000138873 0)
(505.164 -4.55848e-05 0)
(505.158 0.000115841 0)
(505.153 0.000280753 0)
(505.15 0.000298782 0)
(505.148 0.000215751 0)
(505.147 -2.68277e-05 0)
(505.147 -0.00028532 0)
(505.146 -0.000259654 0)
(505.144 -0.00018251 0)
(505.143 -4.89571e-05 0)
(505.141 0.000162328 0)
(505.139 0.000363536 0)
(505.136 0.000363809 0)
(505.133 0.000281826 0)
(505.129 0.000139695 0)
(505.125 -0.000242818 0)
(505.12 -0.000619859 0)
(505.115 -0.000324316 0)
(505.112 -0.000188571 0)
(505.111 -6.33089e-05 0)
(505.111 7.43939e-05 0)
(505.112 0.000168699 0)
(505.115 0.000120201 0)
(505.121 4.29928e-05 0)
(505.129 2.3339e-06 0)
(505.138 -8.1755e-05 0)
(505.15 -0.00010576 0)
(505.16 6.31247e-05 0)
(505.17 0.000302814 0)
(505.177 0.000525213 0)
(505.182 0.000455407 0)
(505.185 0.000298319 0)
(505.188 0.000151897 0)
(505.19 -0.000150106 0)
(505.193 -0.000371551 0)
(505.196 -0.000436674 0)
(505.199 -0.000244948 0)
(505.202 -8.93671e-05 0)
(505.203 -5.65114e-05 0)
(505.204 -9.72591e-05 0)
(505.204 -0.000193837 0)
(505.204 -0.000186949 0)
(505.202 -0.000221592 0)
(505.2 -0.000223007 0)
(505.197 -9.62493e-05 0)
(505.192 2.58685e-05 0)
(505.185 0.000304562 0)
(505.178 0.000594573 0)
(505.171 0.000564798 0)
(505.164 0.000443311 0)
(505.158 4.39267e-05 0)
(505.153 -0.000339913 0)
(505.15 -0.000370206 0)
(505.148 -0.000336168 0)
(505.146 -0.000365785 0)
(505.145 -0.000224697 0)
(505.144 0.000217551 0)
(505.143 0.000450002 0)
(505.142 0.000390462 0)
(505.141 -7.48516e-05 0)
(505.139 -0.000321925 0)
(505.137 -0.000293326 0)
(505.133 -0.000248382 0)
(505.128 -0.000242157 0)
(505.122 -0.000161214 0)
(505.115 0.000258019 0)
(505.108 0.000467536 0)
(505.103 0.000425173 0)
(505.102 -2.13459e-06 0)
(505.101 -0.000352808 0)
(505.102 -0.000457441 0)
(505.104 -0.000594392 0)
(505.108 -0.000401325 0)
(505.115 0.000241434 0)
(505.125 0.000621892 0)
(505.137 0.000904885 0)
(505.151 0.00124655 0)
(505.164 0.00126293 0)
(505.174 0.000306617 0)
(505.182 -0.000824709 0)
(505.186 -0.00108594 0)
(505.191 -0.000965516 0)
(500 -6.45739e-14 0)
(500 -1.68636e-13 0)
(500 -1.2722e-13 0)
(500 -2.0637e-13 0)
(500 -3.28862e-13 0)
(500 -3.72593e-13 0)
(500 -4.35157e-13 0)
(500 -3.44287e-13 0)
(500 -3.01941e-13 0)
(500 -3.56479e-13 0)
(500 -3.21364e-13 0)
(500 -3.13497e-13 0)
(500 -2.41817e-13 0)
(500 -1.77641e-13 0)
(500 -1.27837e-13 0)
(500 -1.12459e-13 0)
(500 -1.44831e-13 0)
(500 -1.35442e-13 0)
(500 -4.01068e-13 0)
(500 -2.89519e-13 0)
(500 -2.84054e-13 0)
(500 -1.98948e-13 0)
(500 -7.4988e-15 0)
(500 -7.42602e-16 0)
(500 9.2176e-14 0)
(500 3.45089e-13 0)
(500 5.1722e-13 0)
(500 5.52777e-13 0)
(500 6.28597e-13 0)
(500 4.85652e-13 0)
(500 5.29701e-13 0)
(500 7.30665e-13 0)
(500 7.73878e-13 0)
(500 6.89503e-13 0)
(500 6.3663e-13 0)
(500 6.88048e-13 0)
(500 6.34961e-13 0)
(500 5.55533e-13 0)
(500 4.13815e-13 0)
(500 3.86189e-13 0)
(500 5.36745e-13 0)
(500 5.05399e-13 0)
(500 4.03652e-13 0)
(500 2.85424e-13 0)
(500 3.72901e-14 0)
(500 3.90815e-14 0)
(500 -5.67054e-14 0)
(500 -1.46638e-13 0)
(500 -5.99007e-13 0)
(500 -5.78874e-13 0)
(500 -5.37065e-13 0)
(500 -5.69284e-13 0)
(500 -3.89331e-13 0)
(500 -2.92986e-13 0)
(500 -6.6023e-14 0)
(500 -2.91811e-15 0)
(500 -1.24478e-14 0)
(500 5.88079e-14 0)