/*--------------------------------*- C++ -*----------------------------------*\
| =========                 |                                                 |
| \\      /  F ield         | OpenFOAM: The Open Source CFD Toolbox           |
|  \\    /   O peration     | Version:  2306                                  |
|   \\  /    A nd           | Website:  www.openfoam.com                      |
|    \\/     M anipulation  |                                                 |
\*---------------------------------------------------------------------------*/
FoamFile
{
    version     2.0;
    format      ascii;
    arch        "LSB;label=32;scalar=64";
    class       volScalarField;
    location    "0.12";
    object      p;
}
// * * * * * * * * * * * * * * * * * * * * * * * * * * * * * * * * * * * * * //

dimensions      [1 -1 -2 0 0 0 0];

internalField   nonuniform List<scalar> 
6000
(
3.44221e+07
1.05533e+06
109596
96323.5
93988.3
97873.4
105511
119993
138306
160688
186930
211238
221903
223869
224459
223872
220452
200133
140376
109899
110267
114489
121550
128677
135028
140913
146718
152687
159010
165842
173302
181641
191739
204937
217137
220481
219166
199545
149042
129674
130076
133678
139512
144741
148766
152282
155798
159500
163390
167395
171393
175288
179236
184078
191898
202049
205687
204721
193549
160878
142748
142164
143570
147356
151712
154955
157348
159597
162084
164891
167882
170782
173371
175751
178485
182811
190538
198318
199620
197753
184577
157986
148397
148488
149921
153171
156675
158918
160281
161540
163128
165200
167641
170090
172186
173967
175885
178807
184129
189914
191283
190721
184337
165915
153418
152532
153062
154998
158218
161056
162633
163572
164473
165659
167292
169237
171084
172623
174112
176174
179828
184176
185760
185760
182198
169481
156748
154733
155036
156592
159736
163326
165594
166713
167514
168399
169609
171254
173074
174583
175686
176723
178265
180933
183529
183954
183150
177956
165215
156222
155274
155802
157686
160950
164028
165613
166401
166890
167402
168155
169216
170552
171943
173084
173972
174994
176781
179190
180629
180361
177850
169552
159046
155301
155136
156243
159011
162503
165148
166221
166504
166798
167469
168797
170819
173174
175334
177272
179760
183265
185610
185183
181276
170184
158717
155585
155591
157796
162029
165596
166303
165832
165486
165587
166711
168821
171358
174094
177709
182532
185517
183740
176332
164843
159416
159305
162822
166974
167618
166016
164628
164215
165763
170101
176773
182821
183496
180131
170094
162126
159054
161773
165800
170814
178894
178445
174424
167262
164885
165764
170303
174331
173867
171584
168128
166639
166772
168995
171885
172274
171404
169623
168774
168913
169938
170920
170913
170314
169156
168701
168807
169356
170009
170110
169963
169561
169356
169400
169653
170050
170208
170189
170061
169890
169831
169829
169833
169820
169779
169710
169669
169668
169684
169687
169670
169624
169571
169561
169578
169643
169731
169772
169765
169737
169676
169593
169504
169411
169314
169234
3.44365e+07
1.04791e+06
109902
96383.1
93964.8
97650.6
105333
119735
138033
160423
186719
211037
221665
223631
224235
223781
220522
200158
140049
109698
110097
114340
121396
128498
134845
140777
146686
152783
159219
166146
173691
182080
192186
205382
217594
220894
219410
199101
148351
129528
129999
133649
139475
144627
148538
151930
155325
158933
162766
166739
170709
174564
178471
183319
191288
201664
205367
204440
193295
160462
142302
141759
143229
147074
151459
154718
157116
159358
161827
164619
167610
170535
173172
175613
178398
182675
190298
198048
199358
197545
184489
157979
148366
148456
149878
153136
156668
158958
160378
161687
163315
165423
167897
170368
172480
174261
176164
179066
184379
190184
191588
191041
184650
166158
153590
152671
153181
155098
158300
161125
162703
163660
164589
165809
167479
169444
171288
172813
174287
176329
179976
184346
185950
185912
182355
169708
156924
154851
155121
156635
159714
163249
165463
166521
167270
168104
169251
170808
172552
174042
175191
176322
178013
180902
183681
184216
183461
178294
165463
156355
155370
155878
157727
160915
163914
165450
166195
166637
167115
167848
168903
170246
171682
172912
173911
175057
177006
179549
181030
180768
178231
169890
159333
155602
155427
156548
159349
162873
165506
166524
166752
166987
167586
168827
170722
172915
174925
176794
179233
182684
185164
184801
181086
170299
159033
155999
156093
158348
162538
165976
166579
166074
165730
165845
166979
169123
171691
174409
177951
182667
185494
183619
176093
164451
158806
158717
162359
166866
168053
166580
165271
165019
166658
170903
177379
182817
182829
179221
169093
161924
159295
162224
166159
171108
179028
178384
174333
167212
164823
165683
170354
174496
173967
171569
168019
166541
166710
168986
171887
172272
171418
169659
168805
168930
169927
170937
170942
170368
169233
168759
168850
169361
169975
170068
169926
169547
169357
169399
169644
170019
170159
170141
170019
169862
169817
169826
169856
169850
169810
169734
169678
169668
169674
169675
169661
169622
169576
169567
169582
169641
169723
169761
169755
169729
169672
169592
169507
169419
169327
169252
3.44508e+07
1.04624e+06
109835
96102
93612.5
97373.8
105143
119609
137886
160224
186565
210749
221223
223149
223781
223449
220467
200102
139605
109497
109925
114181
121203
128254
134601
140608
146643
152906
159496
166522
174118
182604
192961
206425
218408
221409
219554
198160
147149
129458
130098
133870
139699
144761
148556
151787
155033
158533
162298
166208
170080
173794
177577
182422
190540
201309
205294
204434
193203
160082
141890
141412
142971
146908
151301
154513
156859
159058
161500
164284
167288
170247
172933
175411
178183
182395
189918
197623
198919
197183
184393
158130
148453
148517
149916
153167
156730
159067
160527
161859
163495
165607
168106
170629
172799
174630
176569
179490
184781
190567
191972
191408
184968
166406
153808
152868
153363
155269
158460
161287
162870
163838
164780
166016
167704
169690
171531
173038
174493
176512
180127
184532
186179
186119
182586
169973
157099
154985
155267
156764
159798
163272
165433
166453
167159
167932
168968
170351
171925
173347
174516
175742
177632
180841
183843
184476
183828
178810
165952
156627
155583
156065
157881
161007
163895
165345
166002
166340
166747
167426
168452
169785
171269
172604
173759
175107
177265
179933
181462
181244
178734
170332
159679
155949
155802
156982
159856
163440
166073
167004
167129
167268
167763
168879
170651
172726
174594
176256
178448
181747
184438
184122
180724
170598
159534
156427
156567
158937
163249
166626
167012
166416
165995
166010
167086
169304
172034
174852
178383
182954
185509
183561
175919
163984
157908
157833
161591
166502
168379
167158
165892
165704
167643
172513
179034
183121
182008
177505
167098
161272
159549
162958
166726
171405
179009
178354
174287
167137
164652
165430
170320
174858
174297
171727
167895
166330
166560
168957
171912
172316
171460
169672
168813
168932
169910
170948
170968
170449
169372
168877
168943
169388
169934
170013
169872
169516
169351
169396
169637
169989
170108
170082
169953
169809
169784
169808
169871
169884
169856
169779
169700
169673
169666
169659
169644
169611
169575
169571
169587
169643
169718
169749
169742
169713
169657
169584
169506
169427
169341
169272
3.44411e+07
1.06517e+06
109210
95480.3
93051.7
96987.1
105018
119670
138029
160302
186445
210201
220525
222411
222991
222771
220219
200074
139441
109430
109808
114026
121004
128049
134453
140569
146768
153226
160001
167140
174796
183405
194073
207868
219453
221962
219611
196586
145446
129289
130086
133982
139778
144681
148274
151321
154432
157859
161594
165489
169335
173006
176759
181625
189837
200971
205279
204525
193215
159709
141466
141053
142719
146763
151175
154336
156614
158751
161157
163939
166965
169960
172681
175165
177893
181995
189373
197024
198311
196673
184220
158227
148423
148452
149819
153061
156662
159060
160570
161936
163594
165742
168303
170901
173141
175026
176978
179839
185044
190850
192308
191760
185331
166767
154107
153119
153587
155468
158631
161442
163055
164071
165058
166335
168049
170038
171867
173346
174766
176749
180335
184783
186484
186401
182880
170233
157238
155090
155377
156852
159829
163211
165238
166125
166716
167366
168256
169528
171093
172601
173906
175298
177368
180816
184028
184768
184220
179392
166596
157027
155911
156369
158155
161206
163931
165270
165831
166084
166432
167072
168093
169454
171025
172470
173716
175156
177468
180290
181932
181799
179370
170958
160220
156512
156401
157624
160526
164102
166645
167444
167450
167485
167885
168924
170606
172524
174165
175582
177528
180674
183711
183514
180509
170983
160044
156769
156941
159442
164032
167546
167781
167042
166512
166482
167486
169596
172245
175094
178642
183051
185441
183353
175571
163304
156844
156746
160724
166151
168722
167894
166651
166620
169077
175168
181370
183060
180757
174149
164413
160654
160315
164269
167601
171552
178684
178455
174490
167235
164341
164893
169996
175279
174793
172089
167768
165976
166289
168927
172057
172455
171553
169622
168686
168807
169798
170945
171032
170594
169590
169040
169067
169427
169903
169965
169822
169482
169326
169370
169604
169942
170047
170015
169884
169755
169744
169785
169883
169921
169904
169832
169736
169680
169661
169647
169630
169600
169573
169573
169590
169643
169711
169736
169727
169695
169639
169571
169504
169436
169362
169301
3.44995e+07
1.02812e+06
107788
94566.9
92555.8
96994.8
105225
120120
138546
160760
186657
209700
219621
221422
221920
221782
219513
199718
139636
109525
109809
113944
120879
127960
134450
140692
147066
153711
160650
167914
175671
184452
195448
209421
220282
222194
219338
194482
143515
129044
129951
133926
139654
144412
147868
150810
153855
157283
161061
165004
168891
172603
176401
181307
189588
201037
205613
204910
193477
159503
141188
140845
142623
146765
151169
154249
156441
158503
160864
163638
166692
169730
172485
174964
177625
181574
188764
196370
197679
196141
184048
158331
148366
148357
149683
152902
156532
158987
160557
161973
163677
165872
168466
171076
173325
175206
177127
179945
185099
190928
192431
191886
185488
167006
154362
153367
153859
155784
158991
161838
163464
164473
165441
166702
168429
170443
172258
173695
175066
177003
180565
185047
186778
186661
183113
170368
157257
155094
155361
156801
159726
163017
164854
165565
166040
166598
167443
168767
170464
172120
173549
175042
177212
180805
184197
185060
184599
179956
167255
157481
156310
156759
158533
161528
164156
165436
165930
166099
166369
166949
167963
169336
170901
172341
173619
175140
177619
180615
182360
182292
179962
171586
160775
157104
157013
158260
161166
164711
167134
167753
167666
167642
168004
169017
170622
172363
173755
174937
176670
179708
183111
183072
180403
171380
160475
156993
157170
159726
164533
168313
168599
167821
167226
167202
168140
170081
172487
175068
178373
182700
185113
182960
175316
162810
155961
155870
160004
165693
168800
168564
167558
168044
171685
178899
182978
182168
178259
169113
161894
159889
161774
166207
168782
171654
178099
178968
175057
167727
164063
164094
169226
175542
175375
172625
167746
165587
165986
168885
172286
172724
171762
169588
168451
168546
169553
170882
171094
170759
169844
169219
169204
169479
169886
169937
169796
169465
169301
169333
169551
169876
169979
169949
169825
169709
169706
169761
169884
169949
169939
169878
169776
169698
169666
169647
169625
169593
169567
169569
169587
169638
169699
169719
169709
169675
169621
169559
169499
169442
169383
169332
3.45185e+07
1.02957e+06
106318
94049.7
92493.4
97307.4
105670
120662
139079
161242
186939
209373
218702
220255
220683
220596
218469
199236
140207
109882
109925
113944
120852
128000
134598
140972
147477
154244
161276
168627
176508
185499
196800
210745
220780
222113
218698
191990
141562
128751
129704
133706
139366
144037
147463
150430
153546
157047
160895
164919
168891
172686
176567
181557
189927
201611
206390
205637
194000
159435
141033
140772
142660
146884
151248
154231
156336
158333
160653
163417
166490
169564
172338
174800
177389
181194
188209
195818
197182
195728
183967
158476
148329
148293
149593
152797
156437
158924
160531
161979
163708
165920
168518
171093
173260
175058
176925
179685
184768
190646
192210
191660
185341
167045
154460
153472
154001
156000
159298
162202
163860
164894
165886
167174
168915
170909
172674
174053
175370
177250
180793
185272
186991
186811
183183
170297
157100
154900
155119
156500
159333
162464
164149
164817
165304
165928
166907
168397
170224
171946
173413
174943
177168
180871
184420
185375
184968
180442
167805
157881
156688
157150
158934
161913
164479
165721
166194
166342
166583
167126
168105
169417
170952
172416
173739
175331
177949
181093
182868
182816
180520
172117
161207
157541
157466
158718
161641
165175
167494
167973
167802
167722
168049
169018
170535
172129
173362
174408
176010
179001
182748
182937
180504
171908
160893
157076
157225
159784
164733
168794
169291
168611
168088
168130
168999
170657
172639
174782
177743
181875
184386
182310
175089
162640
155326
155216
159152
165201
169040
169610
169087
170011
175028
181767
182831
180807
173381
163701
160193
159958
163783
168419
170025
171799
177367
179420
175636
168576
164118
163278
168077
175596
175996
173287
167876
165267
165690
168774
172497
173026
172032
169588
168193
168251
169280
170815
171169
170912
170059
169352
169307
169525
169894
169939
169798
169469
169288
169306
169493
169799
169910
169888
169779
169676
169677
169740
169879
169966
169959
169903
169810
169732
169692
169664
169635
169598
169564
169560
169575
169620
169678
169700
169689
169658
169608
169553
169501
169453
169405
169359
3.45363e+07
1.01976e+06
105300
93479.4
92346.8
97478.5
105998
121060
139427
161522
187208
209172
217826
219071
219485
219454
217357
198545
140656
110234
110019
113922
120795
128028
134794
141348
147970
154788
161870
169315
177340
186514
198019
211825
220951
221759
217840
189497
139870
128490
129449
133474
139103
143762
147249
150309
153486
156999
160859
164931
168997
172927
176949
182049
190535
202540
207594
206786
194902
159620
141108
140939
142909
147169
151448
154323
156352
158308
160612
163372
166433
169480
172221
174639
177161
180856
187739
195417
196884
195505
184013
158657
148343
148288
149582
152782
156421
158917
160533
161983
163705
165900
168474
170997
173048
174708
176439
179045
184024
189984
191637
191101
184910
166883
154397
153427
154003
156080
159456
162381
164044
165101
166146
167518
169349
171393
173129
174423
175643
177445
180950
185418
187099
186852
183116
170023
156762
154545
154726
156057
158807
161848
163543
164266
164804
165488
166543
168107
169988
171754
173256
174819
177085
180857
184490
185510
185178
180798
168253
158245
157025
157483
159266
162254
164814
166061
166562
166721
166951
167477
168446
169749
171281
172760
174106
175715
178407
181656
183380
183300
181005
172500
161437
157799
157733
158984
161922
165458
167689
168020
167820
167734
168039
168928
170300
171742
172895
173929
175533
178578
182661
183034
180847
172563
161284
156977
157037
159539
164702
169113
169882
169333
168938
169050
169842
171189
172739
174447
176965
180750
183365
181457
174986
162830
155073
154660
158475
164539
169120
170702
170802
172205
177326
182227
181576
177189
166891
160580
159568
161362
165786
169728
170778
172168
177216
179868
176067
169077
164063
162517
167018
175500
176605
174024
168224
165060
165422
168536
172570
173233
172240
169596
167978
168019
169079
170777
171248
171028
170187
169408
169340
169540
169931
170005
169871
169528
169297
169298
169460
169740
169852
169837
169740
169649
169652
169715
169856
169953
169953
169907
169825
169771
169741
169712
169671
169620
169570
169552
169558
169591
169645
169677
169670
169646
169606
169559
169513
169470
169425
169378
3.45558e+07
993882
105402
93183.1
92052.5
97199.9
105832
120985
139461
161756
187544
209023
216958
217981
218492
218545
216378
197686
140770
110448
110034
113799
120609
127945
134887
141575
148249
155049
162090
169543
177669
187015
198695
212355
220881
221288
216985
187403
138573
128287
129283
133366
138963
143600
147134
150285
153549
157111
160980
165050
169179
173259
177474
182749
191404
203741
209123
208253
196133
160085
141363
141252
143282
147559
151745
154501
156459
158383
160683
163444
166493
169499
172172
174509
176940
180542
187348
195153
196772
195477
184180
158860
148377
148310
149602
152796
156431
158923
160542
162002
163734
165921
168426
170796
172671
174161
175724
178164
183022
189059
190797
190294
184289
166599
154230
153285
153913
156060
159487
162412
164057
165121
166214
167673
169615
171747
173515
174794
175963
177673
181100
185544
187165
186856
182997
169672
156369
154154
154298
155599
158301
161311
163025
163781
164351
165080
166197
167835
169801
171638
173184
174763
177028
180810
184472
185497
185179
180820
168317
158358
157217
157740
159579
162614
165172
166406
166917
167109
167372
167936
168942
170295
171864
173345
174666
176237
178935
182253
183857
183733
181413
172748
161549
157993
157921
159138
162077
165634
167769
167940
167720
167641
167925
168707
169912
171247
172424
173551
175231
178353
182688
183385
181370
173352
161771
156882
156824
159225
164521
169262
170302
169868
169574
169739
170472
171617
172807
174040
176017
179361
182186
180540
174956
163501
155283
154728
158148
164358
169480
171641
172101
173272
177160
180755
179668
172952
163217
160203
160268
162782
166978
169895
170658
173211
178775
180602
176306
168750
163449
161651
166330
175590
177254
174760
168645
164891
165142
168209
172508
173329
172384
169652
167880
167914
168994
170787
171310
171092
170235
169406
169319
169513
169937
170055
169945
169621
169356
169336
169467
169724
169819
169799
169702
169616
169620
169685
169823
169921
169924
169887
169823
169800
169791
169775
169737
169672
169594
169546
169541
169556
169601
169647
169654
169640
169610
169572
169530
169485
169438
169387
3.45116e+07
1.04374e+06
104948
92892.5
91728.3
96855.7
105512
120786
139499
162109
188102
209095
216285
217264
217905
218000
215618
196644
140262
110479
109943
113638
120398
127787
134799
141509
148133
154825
161748
169108
177210
186599
198330
212048
220672
221047
216546
186078
137666
128094
129048
133154
138749
143423
147079
150384
153755
157369
161235
165315
169509
173723
178115
183562
192347
204934
210661
209711
197414
160623
141599
141496
143544
147833
151954
154633
156550
158471
160783
163548
166574
169526
172129
174402
176790
180356
187145
195072
196782
195500
184302
158952
148309
148238
149536
152727
156347
158818
160416
161866
163603
165795
168253
170494
172198
173529
174967
177322
182157
188235
189951
189416
183467
166039
153933
153079
153783
156024
159526
162427
164021
165052
166145
167660
169690
171898
173718
175030
176220
177934
181358
185775
187320
186949
182953
169421
156105
153902
154038
155333
158017
160990
162688
163450
164031
164792
165976
167704
169758
171649
173212
174779
177002
180728
184359
185350
185021
180649
168146
158262
157167
157718
159576
162682
165314
166574
167135
167398
167725
168361
169429
170865
172481
173951
175229
176746
179444
182815
184280
184123
181762
172861
161541
158143
158078
159272
162220
165765
167733
167750
167500
167405
167625
168272
169347
170670
171967
173241
174982
178104
182575
183641
181904
174330
162577
156984
156799
159023
164292
169127
170438
170101
169839
169968
170677
171750
172693
173491
174914
177858
180989
179869
175092
164432
155848
155062
158091
164351
169862
172286
172577
173022
175946
180127
178422
172445
162929
160094
160399
163024
166406
169055
171475
175927
181761
181814
176376
167582
162245
160730
166058
175975
177940
175413
168917
164659
164832
167930
172450
173409
172516
169757
167869
167883
168959
170789
171333
171112
170237
169369
169276
169476
169929
170079
169992
169704
169449
169418
169524
169749
169823
169784
169664
169571
169576
169645
169784
169878
169880
169846
169814
169810
169835
169845
169821
169753
169644
169552
169524
169526
169556
169608
169640
169636
169620
169589
169549
169500
169448
169391
3.45514e+07
992024
104209
92154.9
91130.7
96516.7
105523
120947
139806
162694
188836
209251
215879
216983
217779
217827
214966
195216
138956
110175
109658
113339
120064
127438
134429
141077
147579
154102
160858
168094
176109
185462
197170
211135
220378
220939
216517
185538
137014
127699
128699
132866
138505
143237
147010
150476
153996
157694
161597
165700
169925
174213
178720
184282
193138
205953
211995
210971
198520
161092
141774
141659
143708
147990
152025
154620
156503
158434
160775
163554
166559
169465
172018
174264
176652
180248
187088
195153
196971
195722
184606
159162
148354
148295
149609
152802
156395
158825
160386
161803
163503
165630
167983
170095
171691
172960
174384
176789
181745
187826
189438
188825
182753
165344
153544
152776
153514
155807
159334
162215
163808
164867
166002
167544
169607
171860
173723
175082
176320
178107
181643
186136
187642
187227
183113
169374
156025
153863
154019
155329
158012
160931
162581
163333
163926
164724
165984
167818
169950
171843
173346
174820
176924
180527
184088
185021
184648
180233
167765
157998
156938
157495
159345
162503
165204
166468
167058
167410
167845
168595
169735
171251
172903
174358
175611
177103
179804
183286
184624
184448
182068
172885
161504
158350
158315
159516
162451
165899
167612
167509
167189
167038
167168
167700
168711
170104
171559
172947
174672
177676
182150
183782
182395
175444
163809
157456
157087
159103
164205
168983
170388
170044
169680
169663
170304
171259
171962
172494
173686
176616
180224
179519
175288
165335
156557
155592
158253
164332
169937
172050
171704
172048
175240
180231
178740
173690
163321
159044
158746
161079
164787
168640
173437
179420
184746
182141
175078
165647
160868
160131
166256
176627
178525
175823
168848
164404
164622
167821
172485
173501
172616
169796
167880
167895
168977
170814
171350
171120
170222
169332
169243
169453
169921
170083
170003
169740
169537
169518
169630
169817
169852
169795
169635
169516
169517
169585
169725
169815
169817
169792
169785
169805
169872
169924
169915
169851
169719
169576
169512
169504
169519
169567
169617
169632
169623
169600
169564
169517
169464
169401
3.45109e+07
1.0233e+06
102750
91234.8
90385.6
96147.2
105616
121285
140319
163399
189575
209404
215439
216839
217789
217819
214406
193531
136840
109500
109185
112944
119672
126975
133867
140398
146769
153178
159837
167002
174993
184284
195899
210099
220002
220843
216540
185503
136551
127228
128296
132560
138273
143064
146922
150500
154150
157962
161959
166102
170342
174649
179184
184799
193720
206760
213046
211999
199420
161479
141878
141725
143735
147966
151914
154441
156300
158243
160616
163412
166404
169278
171807
174054
176480
180144
187069
195251
197150
195920
184849
159267
148301
148251
149569
152748
156304
158690
160208
161582
163244
165334
167663
169790
171415
172717
174184
176688
181771
187855
189375
188706
182390
164737
153240
152565
153301
155593
159075
161873
163425
164492
165673
167297
169422
171701
173587
174976
176259
178131
181831
186522
188087
187671
183509
169582
156179
154068
154253
155595
158297
161162
162742
163469
164064
164891
166208
168107
170259
172086
173463
174798
176776
180288
183793
184656
184238
179731
167217
157577
156555
157105
158934
162118
164860
166100
166685
167111
167658
168523
169743
171333
173028
174493
175753
177260
179964
183595
184856
184682
182310
172808
161462
158633
158651
159885
162768
166071
167521
167309
166877
166641
166685
167166
168192
169658
171196
172608
174234
177035
181427
183834
182796
176605
165341
158254
157619
159410
164275
168936
170091
169572
169153
169072
169537
170264
170901
171620
173164
176361
180049
179541
175654
166151
157396
156243
158721
164738
170299
171714
170757
170827
174264
180592
180988
175607
164454
157575
156665
159519
164232
169562
175607
182172
184984
181096
172705
164041
160013
160223
167100
177591
178856
175674
168374
164207
164551
167971
172661
173578
172628
169719
167847
167885
169020
170870
171374
171130
170209
169325
169240
169448
169905
170059
169986
169743
169597
169606
169758
169931
169932
169837
169628
169467
169459
169514
169644
169729
169735
169726
169738
169794
169908
170003
170010
169956
169815
169621
169510
169490
169494
169529
169581
169615
169617
169602
169574
169534
169486
169419
3.4558e+07
950999
101492
90650.2
89915.6
95996.4
105751
121610
140807
164065
190257
209596
215247
216887
217875
217894
214037
191817
134218
108586
108587
112552
119350
126579
133358
139782
146044
152331
158876
165956
173874
183070
194573
208960
219502
220657
216530
185815
136392
126764
127917
132287
138101
142965
146875
150509
154225
158128
162202
166404
170702
175034
179576
185193
194166
207379
213800
212745
200053
161759
141860
141620
143543
147680
151567
154073
155944
157923
160327
163141
166138
169011
171548
173822
176300
180043
187065
195341
197275
196047
184989
159261
148141
148089
149390
152528
156032
158378
159871
161235
162914
165074
167541
169845
171626
173035
174563
177097
182213
188254
189706
188994
182351
164258
153041
152454
153180
155450
158849
161523
162999
164034
165212
166862
169042
171382
173318
174753
176096
178067
181959
186907
188592
188233
184113
170070
156589
154534
154749
156133
158865
161685
163196
163880
164448
165255
166560
168448
170546
172252
173500
174722
176620
180091
183564
184374
183917
179305
166684
157139
156135
156646
158421
161572
164336
165551
166095
166548
167165
168105
169421
171111
172863
174356
175662
177234
179954
183706
185013
184820
182432
172648
161388
158898
158978
160249
163061
166149
167401
167132
166663
166386
166370
166841
167944
169448
170964
172298
173769
176314
180461
183635
182981
177707
167009
159216
158235
159743
164272
168690
169617
168975
168327
168027
168217
168854
169766
171011
173156
176690
180337
179921
176304
167162
158444
157202
159579
165436
170455
170895
169340
168980
172332
180218
183483
178547
167294
158798
156813
159585
165002
171560
178339
183035
183075
179422
171107
163669
160084
161082
168687
178618
178681
174919
167519
164125
164712
168498
172964
173595
172467
169435
167778
167891
169140
170989
171417
171146
170187
169334
169263
169473
169900
170016
169937
169708
169608
169650
169860
170053
170046
169921
169649
169435
169407
169441
169541
169615
169635
169649
169687
169784
169947
170078
170096
170055
169919
169692
169521
169480
169476
169496
169535
169575
169600
169599
169583
169555
169517
169448
3.457e+07
934075
100827
90471.5
89985.6
96140.1
105986
121899
141215
164690
191006
210134
215511
217446
218526
218267
213928
190170
131428
107659
108049
112303
119205
126366
133004
139281
145446
151689
158222
165324
173268
182411
193729
208048
219013
220405
216475
186444
136562
126417
127652
132108
138031
142961
146886
150510
154232
158162
162298
166588
170929
175217
179633
185085
193920
207153
213762
212824
200264
161914
141744
141342
143216
147261
151094
153597
155488
157493
159924
162774
165815
168740
171329
173663
176200
179995
187055
195367
197309
196068
185034
159212
147955
147893
149164
152251
155709
158040
159541
160936
162682
164961
167598
170085
172031
173562
175177
177814
183087
189096
190433
189639
182513
163819
152927
152415
153150
155422
158718
161248
162631
163617
164755
166367
168530
170898
172912
174451
175907
178006
182061
187236
189056
188767
184729
170627
157063
155062
155294
156708
159461
162201
163593
164214
164749
165525
166802
168652
170661
172238
173368
174500
176337
179800
183293
184083
183603
178947
166294
156811
155801
156252
157942
161004
163736
164923
165450
165920
166563
167527
168921
170710
172517
174036
175391
177041
179806
183617
185081
184908
182471
172488
161275
159028
159149
160454
163189
166006
167169
166933
166551
166327
166371
166898
167975
169447
170908
172138
173467
175731
179550
183350
182904
178616
168567
160134
158679
159964
164271
168482
169123
168269
167198
166600
166610
167398
168807
170713
173330
177155
180956
180589
177158
168271
159658
158383
160619
166068
170227
169848
167978
167340
170103
177813
185419
182193
172928
161916
158372
159935
165301
172087
178824
181571
180098
176268
169159
163516
160894
162716
170673
179106
177973
173602
166533
164192
165173
169372
173260
173513
172076
168958
167700
167944
169390
171194
171495
171159
170129
169341
169304
169538
169919
169981
169872
169639
169582
169659
169932
170161
170159
170028
169708
169422
169364
169374
169429
169482
169518
169561
169638
169783
169994
170147
170169
170136
170011
169782
169559
169472
169459
169464
169486
169520
169561
169592
169594
169577
169550
169486
3.45189e+07
1.00105e+06
101029
90673
90290.4
96383.7
106160
122083
141594
165437
192092
211329
216582
218610
219569
219194
214469
188794
128685
106904
107666
112267
119292
126382
132901
139080
145179
151401
157971
165151
173165
182290
193456
207598
218685
220177
216416
187269
137013
126239
127530
132030
138030
142989
146870
150422
154111
158082
162298
166651
170971
175144
179365
184601
193231
206342
212963
212240
199968
162010
141597
141032
142812
146754
150575
153112
155041
157079
159548
162440
165544
168557
171242
173645
176218
180024
187085
195391
197311
196050
185045
159170
147804
147733
148961
151992
155412
157742
159266
160706
162507
164853
167580
170216
172371
174097
175893
178751
184273
190220
191409
190493
182704
163307
152806
152361
153093
155360
158573
160985
162301
163251
164355
165929
168052
170395
172431
174042
175606
177852
182091
187496
189440
189207
185215
171012
157393
155456
155708
157146
159936
162683
164068
164687
165216
165970
167208
169000
170923
172377
173387
174422
176193
179653
183179
183937
183432
178768
166109
156635
155609
155998
157610
160563
163230
164394
164914
165386
166029
167005
168463
170326
172149
173646
175001
176703
179561
183380
184994
184902
182377
172263
161063
158979
159125
160420
163045
165635
166810
166719
166489
166383
166570
167211
168321
169704
171047
172202
173419
175434
178975
183036
182794
179286
169727
160716
158816
159951
164002
167919
168301
167244
165900
165202
165269
166437
168483
170816
173685
177738
181786
181548
178146
169259
160708
159357
161373
166232
169541
168676
166818
166065
168149
174708
183980
186278
179139
167026
160296
159240
163537
169791
176005
178529
177259