/*--------------------------------*- C++ -*----------------------------------*\
| =========                 |                                                 |
| \\      /  F ield         | OpenFOAM: The Open Source CFD Toolbox           |
|  \\    /   O peration     | Version:  2306                                  |
|   \\  /    A nd           | Website:  www.openfoam.com                      |
|    \\/     M anipulation  |                                                 |
\*---------------------------------------------------------------------------*/
FoamFile
{
    version     2.0;
    format      ascii;
    arch        "LSB;label=32;scalar=64";
    class       volVectorField;
    location    "0.12";
    object      U;
}
// * * * * * * * * * * * * * * * * * * * * * * * * * * * * * * * * * * * * * //

dimensions      [0 1 -1 0 0 0 0];

internalField   nonuniform List<vector> 
6000
(
(-2404.82 -0.679201 0)
(-833.797 -3.08057 0)
(-132.355 2.86526 0)
(-247.559 3.55969 0)
(-273.127 3.08199 0)
(-254.97 1.1863 0)
(-187.697 1.4421 0)
(-99.3363 0.778591 0)
(4.52731 -0.122888 0)
(114.453 -0.942795 0)
(225.824 -1.18044 0)
(315.892 -1.45695 0)
(349.403 -1.39617 0)
(353.24 -1.04018 0)
(353.831 -0.335394 0)
(353.31 0.513427 0)
(343.521 1.01249 0)
(273.66 1.38957 0)
(5.97303 1.23091 0)
(-173.785 1.0143 0)
(-177.311 0.794109 0)
(-154.297 0.64002 0)
(-114.437 0.516303 0)
(-74.2295 0.41634 0)
(-37.8385 0.475141 0)
(-3.40921 0.654752 0)
(30.6628 0.938182 0)
(64.9364 1.26338 0)
(99.6113 1.44444 0)
(134.829 1.6638 0)
(170.646 1.97221 0)
(207.585 2.29648 0)
(248.603 2.4925 0)
(298.247 2.50441 0)
(340.598 2.40923 0)
(350.614 2.24143 0)
(343.106 1.93202 0)
(269.378 1.28871 0)
(39.3671 0.289835 0)
(-67.8698 -0.0729577 0)
(-66.7861 -0.261313 0)
(-48.7698 -0.412359 0)
(-19.7111 -0.632795 0)
(4.87981 -0.879798 0)
(23.0087 -1.07948 0)
(39.3985 -1.12246 0)
(57.0504 -1.03583 0)
(76.6389 -0.918192 0)
(97.5052 -0.849996 0)
(118.515 -0.84468 0)
(138.491 -0.871096 0)
(156.826 -0.934905 0)
(174.686 -1.05753 0)
(196.495 -1.2577 0)
(230.617 -1.07298 0)
(274.516 -0.687849 0)
(291.011 -0.386419 0)
(287.422 -0.234889 0)
(241.897 0.0482605 0)
(90.4045 0.402685 0)
(-4.6796 0.553371 0)
(-8.20424 0.681253 0)
(1.08014 0.812558 0)
(23.2232 0.907974 0)
(47.6282 0.908823 0)
(65.1429 0.840171 0)
(77.3432 0.75885 0)
(88.204 0.68486 0)
(100.275 0.601978 0)
(114.51 0.523615 0)
(130.311 0.451517 0)
(145.953 0.366407 0)
(159.756 0.217814 0)
(171.651 -0.0115527 0)
(183.899 -0.117982 0)
(202.136 -0.241415 0)
(234.753 -0.540226 0)
(267.089 -0.87074 0)
(273.052 -1.00795 0)
(266.309 -1.06888 0)
(210.165 -1.03981 0)
(81.5911 -1.0352 0)
(30.247 -1.02914 0)
(29.4929 -1.0157 0)
(36.7115 -1.04052 0)
(54.4491 -1.10451 0)
(74.0093 -1.11717 0)
(87.0383 -1.04594 0)
(95.2035 -0.954581 0)
(102.143 -0.84983 0)
(110.025 -0.722002 0)
(120.037 -0.550269 0)
(131.944 -0.308203 0)
(143.995 0.0387279 0)
(154.382 0.410568 0)
(163.14 0.70422 0)
(172.356 0.853833 0)
(186.523 0.909253 0)
(211.515 0.923293 0)
(237.987 0.958574 0)
(244.919 0.988568 0)
(240.937 0.993971 0)
(210.926 0.998774 0)
(120.174 0.995164 0)
(54.331 0.960976 0)
(48.1906 0.937689 0)
(51.927 0.926033 0)
(63.1709 0.926513 0)
(81.3518 0.915155 0)
(97.2209 0.869504 0)
(106.216 0.78576 0)
(111.738 0.700564 0)
(116.903 0.641573 0)
(123.252 0.609435 0)
(131.583 0.585272 0)
(141.298 0.525949 0)
(150.35 0.446966 0)
(157.713 0.393332 0)
(164.709 0.329461 0)
(174.454 0.185467 0)
(191.332 0.0563602 0)
(211.466 -0.0254927 0)
(218.09 -0.0238981 0)
(216.174 0.0408688 0)
(198.068 0.155178 0)
(134.862 0.167412 0)
(67.3494 0.149441 0)
(55.3922 0.125705 0)
(57.5639 0.0272469 0)
(65.4737 -0.12732 0)
(81.8234 -0.275711 0)
(100.086 -0.434614 0)
(111.1 -0.602047 0)
(116.065 -0.794097 0)
(119.543 -0.98659 0)
(123.709 -1.19196 0)
(129.779 -1.45081 0)
(138.244 -1.73345 0)
(147.702 -1.95547 0)
(155.582 -2.11308 0)
(161.536 -2.25307 0)
(167.47 -2.34783 0)
(176.196 -2.33964 0)
(190.773 -2.19624 0)
(203.552 -1.89215 0)
(208.229 -1.47679 0)
(204.065 -1.07803 0)
(178.954 -0.727904 0)
(112.828 -0.599973 0)
(64.5648 -0.529547 0)
(57.4922 -0.477919 0)
(61.5352 -0.448676 0)
(71.7362 -0.431985 0)
(89.6248 -0.530287 0)
(106.07 -0.683277 0)
(113.743 -0.869004 0)
(117.342 -1.04089 0)
(119.335 -1.22719 0)
(121.277 -1.3628 0)
(125.201 -1.52445 0)
(130.601 -1.67497 0)
(137.594 -1.8092 0)
(144.862 -1.92058 0)
(150.836 -1.97455 0)
(155.548 -1.89337 0)
(161.226 -1.69821 0)
(170.821 -1.3926 0)
(183.363 -0.990346 0)
(191.565 -0.57614 0)
(190.16 -0.186941 0)
(177.121 0.240144 0)
(134.95 0.477925 0)
(76.523 0.745513 0)
(57.952 1.03706 0)
(55.7394 1.26383 0)
(63.2163 1.43355 0)
(79.4905 1.55316 0)
(98.8645 1.66704 0)
(113.016 1.76972 0)
(118.606 1.81705 0)
(119.53 1.78399 0)
(120.052 1.71134 0)
(122.456 1.57858 0)
(128.18 1.36246 0)
(137.321 1.03487 0)
(148.011 0.563686 0)
(157.773 -0.147311 0)
(166.665 -0.868565 0)
(177.856 -1.38362 0)
(193.717 -1.73942 0)
(205.118 -2.07445 0)
(202.812 -2.25981 0)
(185.946 -2.2305 0)
(136.56 -1.9343 0)
(81.1754 -1.51242 0)
(66.8773 -1.00204 0)
(67.4701 -0.499351 0)
(79.8095 0.16246 0)
(100.718 0.674888 0)
(117.25 0.92608 0)
(121.174 0.993814 0)
(118.844 0.99401 0)
(116.429 1.0483 0)
(116.291 1.1093 0)
(120.464 1.14324 0)
(128.506 1.17543 0)
(138.062 1.17355 0)
(148.229 1.1084 0)
(161.263 0.948154 0)
(179.081 0.641883 0)
(190.057 0.148828 0)
(184.119 -0.554136 0)
(154.329 -1.42688 0)
(113.955 -2.11575 0)
(91.6396 -3.03618 0)
(94.211 -3.7606 0)
(111.97 -4.22307 0)
(131.47 -4.17192 0)
(138.527 -3.62343 0)
(137.143 -2.97514 0)
(135.638 -2.43268 0)
(137.158 -1.48709 0)
(144.633 -0.0247748 0)
(160.603 1.27066 0)
(182.519 1.97882 0)
(199.506 2.5133 0)
(200.581 2.80987 0)
(184.153 2.93258 0)
(151.616 2.74543 0)
(118.939 2.66771 0)
(109.034 2.54147 0)
(115.136 2.26913 0)
(123.762 1.81066 0)
(134.003 1.35525 0)
(146.115 0.900906 0)
(146.34 0.481863 0)
(137.592 0.0404226 0)
(126.513 -0.349028 0)
(122.633 -0.581052 0)
(125.088 -0.717873 0)
(133.625 -0.785205 0)
(141.046 -0.708531 0)
(141.494 -0.605847 0)
(138.4 -0.500222 0)
(133.487 -0.393167 0)
(131.228 -0.306841 0)
(131.74 -0.247975 0)
(135.715 -0.179928 0)
(140.316 -0.119163 0)
(141.243 -0.0818381 0)
(139.82 -0.0549833 0)
(137.04 -0.0177259 0)
(135.648 0.00366135 0)
(135.877 0.0117538 0)
(137.516 0.0130644 0)
(139.071 0.0118235 0)
(139.057 0.02153 0)
(138.113 0.0419955 0)
(136.262 0.0606771 0)
(135.501 0.0729647 0)
(135.639 0.0783857 0)
(136.465 0.0761677 0)
(137.421 0.0633761 0)
(137.547 0.0505544 0)
(137.256 0.0402481 0)
(136.573 0.0336073 0)
(136.203 0.034503 0)
(136.231 0.034651 0)
(136.597 0.0307312 0)
(137.19 0.0203077 0)
(137.429 0.00405461 0)
(137.377 -0.00912579 0)
(137.17 -0.020848 0)
(136.897 -0.0258273 0)
(136.795 -0.0259765 0)
(136.785 -0.0245075 0)
(136.796 -0.0139607 0)
(136.77 -0.00197332 0)
(136.688 0.0104235 0)
(136.568 0.0170026 0)
(136.488 0.0197042 0)
(136.47 0.0196803 0)
(136.484 0.0173027 0)
(136.49 0.0129311 0)
(136.454 0.0101264 0)
(136.371 0.00924021 0)
(136.283 0.0107931 0)
(136.244 0.0126767 0)
(136.264 0.0139626 0)
(136.367 0.0138796 0)
(136.505 0.010809 0)
(136.571 0.00578272 0)
(136.554 0.0016346 0)
(136.49 -0.00328227 0)
(136.382 -0.00639784 0)
(136.249 -0.00719684 0)
(136.114 -0.0060256 0)
(135.985 -0.00174985 0)
(135.851 0.00345983 0)
(135.73 0.00677304 0)
(-2405.08 -1.21202 0)
(-829.514 -3.59131 0)
(-132.724 7.30316 0)
(-248.067 8.1923 0)
(-272.618 7.6615 0)
(-254.46 5.47555 0)
(-187.938 4.87395 0)
(-99.8906 3.14242 0)
(3.5552 1.53311 0)
(113.146 -0.604696 0)
(224.778 -2.40895 0)
(314.672 -3.18565 0)
(348.235 -3.11834 0)
(352.462 -2.33551 0)
(353.515 -0.77377 0)
(353.592 1.31649 0)
(344.663 3.07228 0)
(274.82 4.45202 0)
(5.27187 4.56673 0)
(-173.862 3.66214 0)
(-177.259 3.19906 0)
(-154.028 2.83592 0)
(-114.088 2.53566 0)
(-73.9765 2.29423 0)
(-37.7001 2.33647 0)
(-3.32367 2.43905 0)
(30.7655 2.44203 0)
(65.1087 2.53451 0)
(99.822 2.58625 0)
(135.076 2.6069 0)
(171.047 2.60787 0)
(208.171 2.62108 0)
(249.438 3.12126 0)
(299.285 4.09592 0)
(341.775 5.14613 0)
(351.761 5.6594 0)
(344.188 6.03936 0)
(268.231 5.36924 0)
(36.0446 2.16855 0)
(-68.343 0.119405 0)
(-67.0877 -0.331751 0)
(-48.9477 -0.645126 0)
(-19.9338 -0.979221 0)
(4.7094 -1.298 0)
(23.1501 -1.24977 0)
(39.7898 -0.714085 0)
(57.5248 -0.0775586 0)
(76.9933 0.588588 0)
(97.6063 1.05222 0)
(118.35 1.20674 0)
(138.143 1.14708 0)
(156.428 0.883824 0)
(174.378 0.427414 0)
(196.511 0.0305579 0)
(231.289 -0.0811035 0)
(275.837 0.462748 0)
(292.294 1.08994 0)
(288.674 1.89024 0)
(243.272 2.75057 0)
(91.0479 3.17915 0)
(-4.5739 3.42876 0)
(-8.10972 3.56646 0)
(1.04577 3.63844 0)
(23.0864 3.67458 0)
(47.3347 3.61985 0)
(64.7577 3.44791 0)
(76.9481 3.25959 0)
(87.8469 3.11575 0)
(99.9305 2.97941 0)
(114.094 2.83329 0)
(129.75 2.64291 0)
(145.219 2.34633 0)
(158.85 1.87582 0)
(170.572 1.21651 0)
(182.654 0.343299 0)
(200.941 -0.500685 0)
(233.619 -1.20257 0)
(266.322 -1.77691 0)
(272.58 -2.08252 0)
(265.852 -2.45641 0)
(209.976 -2.7599 0)
(81.463 -2.70719 0)
(29.9411 -2.81899 0)
(29.188 -2.83799 0)
(36.4832 -2.89312 0)
(54.25 -3.04784 0)
(73.8032 -3.13497 0)
(86.8184 -3.12815 0)
(95.0199 -3.12505 0)
(102.071 -3.05183 0)
(110.149 -2.85982 0)
(120.372 -2.53559 0)
(132.45 -2.05917 0)
(144.648 -1.45577 0)
(155.099 -0.738027 0)
(163.812 -0.0299002 0)
(172.913 0.591118 0)
(186.906 1.06918 0)
(211.693 1.37884 0)
(238.09 1.51106 0)
(245.056 1.58197 0)
(241.107 1.69203 0)
(211.203 1.8145 0)
(120.43 1.86133 0)
(54.4887 1.92564 0)
(48.319 2.04885 0)
(52.0634 2.15898 0)
(63.1825 2.2789 0)
(81.184 2.31546 0)
(96.8695 2.21209 0)
(105.725 1.94671 0)
(111.147 1.55972 0)
(116.274 1.13429 0)
(122.724 0.732903 0)
(131.314 0.397266 0)
(141.224 0.166058 0)
(150.344 0.0129272 0)
(157.685 -0.103708 0)
(164.64 -0.256082 0)
(174.338 -0.448142 0)
(191.162 -0.715224 0)
(211.456 -1.00973 0)
(218.272 -1.11604 0)
(216.517 -1.20216 0)
(198.657 -1.32772 0)
(135.822 -1.02997 0)
(67.9925 -0.493987 0)
(55.8862 -0.341433 0)
(58.0639 -0.287222 0)
(65.924 -0.246719 0)
(82.0958 -0.262539 0)
(100.273 -0.36444 0)
(111.208 -0.419471 0)
(116.036 -0.391906 0)
(119.364 -0.365212 0)
(123.312 -0.39323 0)
(129.02 -0.560525 0)
(136.9 -0.9436 0)
(145.761 -1.79816 0)
(153.517 -3.05294 0)
(159.715 -4.35177 0)
(165.978 -5.49844 0)
(175.217 -6.37119 0)
(190.445 -6.72796 0)
(203.978 -6.45034 0)
(208.882 -5.79903 0)
(205.073 -5.10185 0)
(180.354 -4.10361 0)
(114.005 -2.95656 0)
(65.2506 -2.14959 0)
(58.0924 -1.72871 0)
(62.0671 -1.39772 0)
(72.0863 -1.03704 0)
(89.5893 -0.754028 0)
(105.793 -0.653511 0)
(113.272 -0.729573 0)
(116.713 -0.864501 0)
(118.388 -1.20695 0)
(120.13 -1.61802 0)
(123.952 -2.21894 0)
(129.263 -2.89605 0)
(136.199 -3.63462 0)
(143.58 -4.43154 0)
(149.849 -5.17557 0)
(154.932 -5.56533 0)
(161.023 -5.57336 0)
(171.149 -5.17636 0)
(184.112 -4.37053 0)
(192.357 -3.49499 0)
(190.974 -2.71183 0)
(178.011 -1.88656 0)
(135.704 -1.10027 0)
(77.2103 -0.494526 0)
(58.7822 0.0258174 0)
(56.699 0.536199 0)
(64.3121 1.11709 0)
(80.7477 1.8242 0)
(100.14 2.61754 0)
(114.119 3.35333 0)
(119.465 3.86529 0)
(120.239 4.12954 0)
(120.693 4.27477 0)
(123.03 4.31848 0)
(128.616 4.19654 0)
(137.447 3.84463 0)
(147.596 3.17153 0)
(156.72 2.22623 0)
(164.955 0.987135 0)
(175.537 -0.603732 0)
(191.266 -2.49874 0)
(203.1 -4.33891 0)
(201.363 -5.5897 0)
(184.946 -6.67315 0)
(136.677 -6.81817 0)
(82.088 -5.75009 0)
(67.7461 -4.62799 0)
(68.5539 -3.62904 0)
(81.1563 -2.46965 0)
(102.073 -1.24464 0)
(118.288 -0.197404 0)
(121.954 0.409396 0)
(119.574 0.679547 0)
(117.12 0.970205 0)
(116.863 1.02429 0)
(121.054 0.989083 0)
(129.357 0.978418 0)
(139.192 1.12599 0)
(149.474 1.33431 0)
(162.382 1.4732 0)
(179.939 1.40757 0)
(190.614 0.886562 0)
(184.312 0.159172 0)
(153.859 -1.23294 0)
(112.373 -3.0965 0)
(89.0307 -5.94773 0)
(91.0956 -8.80215 0)
(108.984 -11.7275 0)
(129.642 -13.3378 0)
(138.483 -12.8083 0)
(137.615 -10.7738 0)
(136.242 -8.7241 0)
(138.246 -6.16971 0)
(146.383 -2.83451 0)
(162.66 1.08009 0)
(183.998 5.38251 0)
(199.4 8.71914 0)
(198.857 10.1117 0)
(181.532 9.86595 0)
(149.436 8.42896 0)
(119.158 7.56284 0)
(110.212 6.68137 0)
(116.281 6.21774 0)
(124.251 5.28563 0)
(134.144 4.11359 0)
(146.002 2.79722 0)
(146.04 1.44523 0)
(137.305 0.17157 0)
(126.408 -1.13308 0)
(122.639 -1.87629 0)
(125.128 -2.31257 0)
(133.903 -2.57251 0)
(141.558 -2.26034 0)
(141.873 -1.82287 0)
(138.53 -1.32888 0)
(133.392 -0.956367 0)
(131.08 -0.785002 0)
(131.632 -0.681843 0)
(135.674 -0.520376 0)
(140.277 -0.340198 0)
(141.183 -0.211445 0)
(139.754 -0.13106 0)
(136.978 -0.0623036 0)
(135.579 -0.010322 0)
(135.787 0.00260156 0)
(137.406 -0.0242154 0)
(139.018 -0.0570945 0)
(139.048 -0.0542426 0)
(138.16 -0.0343403 0)
(136.355 0.0488972 0)
(135.569 0.148787 0)
(135.681 0.206447 0)
(136.455 0.245227 0)
(137.363 0.225289 0)
(137.486 0.181053 0)
(137.206 0.13807 0)
(136.561 0.104403 0)
(136.219 0.102035 0)
(136.251 0.109876 0)
(136.61 0.120287 0)
(137.174 0.116831 0)
(137.388 0.0853181 0)
(137.326 0.0529916 0)
(137.113 0.00578142 0)
(136.855 -0.040768 0)
(136.763 -0.0670131 0)
(136.767 -0.0783675 0)
(136.804 -0.0757015 0)
(136.797 -0.0521923 0)
(136.724 -0.0160876 0)
(136.596 0.024886 0)
(136.499 0.0519087 0)
(136.468 0.0592473 0)
(136.471 0.0580103 0)
(136.472 0.0464273 0)
(136.442 0.0343949 0)
(136.371 0.02516 0)
(136.291 0.026227 0)
(136.252 0.0334171 0)
(136.268 0.0400895 0)
(136.363 0.0439514 0)
(136.492 0.0397191 0)
(136.553 0.0264163 0)
(136.537 0.0146726 0)
(136.474 -6.0461e-05 0)
(136.372 -0.012583 0)
(136.242 -0.0197405 0)
(136.109 -0.0235702 0)
(135.982 -0.0237351 0)
(135.853 -0.0217331 0)
(135.739 -0.0194665 0)
(-2405.2 -2.47002 0)
(-827.253 -1.43458 0)
(-133.679 10.4168 0)
(-248.831 11.2508 0)
(-272.951 9.91232 0)
(-255.101 7.39856 0)
(-188.559 5.67652 0)
(-100.55 3.88078 0)
(2.51741 1.92808 0)
(111.858 -0.169944 0)
(223.591 -2.33758 0)
(313.348 -3.9866 0)
(346.665 -4.37386 0)
(351.151 -3.58638 0)
(352.709 -1.78971 0)
(353.908 0.903314 0)
(346.11 2.62898 0)
(276.314 4.08436 0)
(4.43961 4.38583 0)
(-173.767 3.91478 0)
(-176.665 3.86044 0)
(-152.908 3.67962 0)
(-112.627 3.49466 0)
(-72.4627 3.29832 0)
(-36.3775 3.48201 0)
(-2.35057 3.66564 0)
(31.2879 3.79456 0)
(65.1458 3.96517 0)
(99.4302 4.11886 0)
(134.323 4.25334 0)
(170.083 4.24185 0)
(207.388 4.17133 0)
(249.335 4.72923 0)
(299.856 6.30453 0)
(341.148 8.05578 0)
(350.345 8.7048 0)
(342.54 8.92909 0)
(262.819 7.44604 0)
(28.7805 2.02818 0)
(-69.6007 -0.795527 0)
(-68.0707 -1.65643 0)
(-49.3808 -2.33253 0)
(-20.0258 -2.83289 0)
(4.98363 -3.17916 0)
(24.0068 -3.2267 0)
(41.2577 -2.68026 0)
(59.2748 -1.98463 0)
(78.602 -1.15508 0)
(98.7795 -0.540808 0)
(119.057 -0.301521 0)
(138.554 -0.25024 0)
(156.755 -0.376498 0)
(174.784 -0.634434 0)
(197.172 -0.771505 0)
(232.621 -0.659103 0)
(278.034 0.0585918 0)
(294.956 1.11776 0)
(291.289 2.37261 0)
(245.613 3.7167 0)
(92.0289 4.45807 0)
(-4.09019 4.73652 0)
(-7.77048 4.82987 0)
(1.10887 4.86602 0)
(22.9507 4.88745 0)
(46.7625 4.77566 0)
(63.7506 4.44494 0)
(75.7471 4.17875 0)
(86.6525 4.06499 0)
(98.8042 4.00718 0)
(112.969 3.93286 0)
(128.502 3.78598 0)
(143.764 3.49632 0)
(157.217 2.98939 0)
(168.862 2.17669 0)
(180.995 1.09537 0)
(199.365 -0.0267322 0)
(232.126 -0.946754 0)
(264.997 -1.67467 0)
(271.513 -2.19123 0)
(264.589 -2.82521 0)
(209.275 -3.24617 0)
(81.3811 -3.04542 0)
(29.3872 -3.04078 0)
(28.6392 -3.02803 0)
(36.0115 -3.08791 0)
(53.8761 -3.26237 0)
(73.5238 -3.36789 0)
(86.6561 -3.33894 0)
(94.9878 -3.35872 0)
(102.235 -3.31041 0)
(110.6 -3.10766 0)
(121.158 -2.8036 0)
(133.501 -2.26263 0)
(145.778 -1.44993 0)
(156.122 -0.487721 0)
(164.625 0.444026 0)
(173.509 1.23706 0)
(187.269 1.76062 0)
(211.779 2.00987 0)
(237.968 2.0282 0)
(244.891 1.9885 0)
(240.996 2.01028 0)
(211.146 2.05027 0)
(120.451 2.09718 0)
(54.6964 2.26439 0)
(48.5801 2.49163 0)
(52.3428 2.67851 0)
(63.3851 2.88179 0)
(81.254 2.98146 0)
(96.8081 2.89814 0)
(105.488 2.6614 0)
(110.748 2.28013 0)
(115.794 1.80123 0)
(122.324 1.32186 0)
(131.1 0.865145 0)
(141.235 0.530776 0)
(150.463 0.275124 0)
(157.757 0.0483059 0)
(164.56 -0.199899 0)
(174.068 -0.482255 0)
(190.746 -0.836133 0)
(211.344 -1.24173 0)
(218.44 -1.38934 0)
(216.859 -1.34248 0)
(199.312 -1.16766 0)
(136.868 -0.848863 0)
(68.6586 -0.57163 0)
(56.2883 -0.626694 0)
(58.3476 -0.776242 0)
(66.1515 -0.862984 0)
(82.2609 -0.910056 0)
(100.377 -0.963188 0)
(111.264 -1.14306 0)
(116.043 -1.29328 0)
(119.323 -1.47913 0)
(123.152 -1.79946 0)
(128.589 -2.37444 0)
(136.016 -3.28848 0)
(144.463 -4.54962 0)
(152.047 -5.97472 0)
(158.255 -7.36237 0)
(164.69 -8.54424 0)
(174.541 -9.40502 0)
(190.795 -9.73487 0)
(205.077 -9.42688 0)
(209.97 -8.78299 0)
(206.411 -8.08542 0)
(182.272 -6.93187 0)
(115.998 -5.39772 0)
(66.166 -4.15155 0)
(58.7743 -3.49323 0)
(62.751 -2.92658 0)
(72.7277 -2.33364 0)
(90.0585 -1.87723 0)
(105.949 -1.75193 0)
(113.139 -1.99298 0)
(116.517 -2.23706 0)
(117.892 -2.68008 0)
(119.411 -3.13858 0)
(123.104 -3.80789 0)
(128.268 -4.57407 0)
(135.095 -5.36035 0)
(142.665 -6.13381 0)
(149.381 -6.81736 0)
(155.079 -7.15888 0)
(161.931 -7.04529 0)
(172.803 -6.47973 0)
(186.154 -5.53477 0)
(194.328 -4.46752 0)
(192.962 -3.39492 0)
(179.933 -2.14956 0)
(137.347 -1.06563 0)
(78.3938 -0.161073 0)
(59.9068 0.683243 0)
(57.7706 1.47865 0)
(65.3801 2.39987 0)
(81.8295 3.38471 0)
(101.233 4.3527 0)
(115.029 5.17956 0)
(119.969 5.71302 0)
(120.39 5.87233 0)
(120.599 5.80809 0)
(122.701 5.64578 0)
(127.973 5.3369 0)
(136.427 4.8 0)
(146.141 3.98957 0)
(154.762 2.76674 0)
(162.44 1.1203 0)
(172.409 -0.98483 0)
(188.063 -3.60775 0)
(200.525 -5.97868 0)
(199.699 -7.61723 0)
(184.332 -8.82183 0)
(138.768 -8.54919 0)
(84.8297 -6.89437 0)
(70.0321 -5.6175 0)
(70.6151 -4.76001 0)
(83.3466 -3.716 0)
(104.499 -2.26626 0)
(120.238 -0.526398 0)
(123.104 0.716783 0)
(120.341 1.33831 0)
(117.696 1.94777 0)
(117.298 2.3541 0)
(121.366 2.48 0)
(129.965 2.39904 0)
(140.362 2.26085 0)
(150.989 2.27627 0)
(163.935 2.32454 0)
(181.006 2.09017 0)
(190.954 1.00243 0)
(184.481 -0.395594 0)
(153.4 -2.44851 0)
(110.866 -5.18723 0)
(85.5886 -8.97578 0)
(86.5657 -13.0241 0)
(103.984 -17.3627 0)
(125.13 -19.9214 0)
(135.388 -19.7496 0)
(135.186 -17.0437 0)
(133.943 -14.0034 0)
(136.657 -10.8867 0)
(146.411 -7.27984 0)
(164.953 -1.31562 0)
(186.252 6.75251 0)
(198.712 13.2687 0)
(195.339 15.8365 0)
(176.38 16.7784 0)
(144.101 14.3545 0)
(117.667 12.9181 0)
(111.035 12.1007 0)
(117.807 11.3463 0)
(125.042 9.48924 0)
(134.211 7.06521 0)
(145.881 3.94741 0)
(146.213 1.53012 0)
(137.584 -0.333579 0)
(126.93 -2.15876 0)
(122.882 -3.25041 0)
(125.335 -3.93853 0)
(134.478 -4.39632 0)
(142.621 -3.90143 0)
(142.842 -3.0742 0)
(139.028 -2.11908 0)
(133.297 -1.40838 0)
(130.743 -1.17883 0)
(131.342 -1.07922 0)
(135.538 -0.866708 0)
(140.216 -0.550393 0)
(141.125 -0.292267 0)
(139.686 -0.106585 0)
(136.842 0.00169175 0)
(135.416 -0.0163864 0)
(135.62 -0.0521805 0)
(137.223 -0.107659 0)
(138.88 -0.152985 0)
(138.974 -0.144209 0)
(138.179 -0.089656 0)
(136.467 0.0461915 0)
(135.66 0.197703 0)
(135.743 0.282917 0)
(136.432 0.340095 0)
(137.255 0.317819 0)
(137.37 0.268385 0)
(137.104 0.220587 0)
(136.502 0.180047 0)
(136.195 0.16792 0)
(136.234 0.16783 0)
(136.589 0.167325 0)
(137.12 0.153362 0)
(137.309 0.119089 0)
(137.239 0.0824394 0)
(137.018 0.0260675 0)
(136.784 -0.0324884 0)
(136.712 -0.0670018 0)
(136.74 -0.0886227 0)
(136.823 -0.0919095 0)
(136.844 -0.0649015 0)
(136.781 -0.0265026 0)
(136.651 0.0265468 0)
(136.525 0.0692291 0)
(136.472 0.0857243 0)
(136.46 0.0868736 0)
(136.45 0.0771298 0)
(136.421 0.0646631 0)
(136.356 0.0546509 0)
(136.289 0.0536691 0)
(136.259 0.0591793 0)
(136.275 0.0653853 0)
(136.362 0.0693077 0)
(136.477 0.0634398 0)
(136.528 0.0476434 0)
(136.509 0.0336478 0)
(136.448 0.0148198 0)
(136.351 -0.00359456 0)
(136.229 -0.0178787 0)
(136.104 -0.0265965 0)
(135.985 -0.0267844 0)
(135.864 -0.0213473 0)
(135.759 -0.0162438 0)
(-2405.66 -3.15417 0)
(-840.308 0.195023 0)
(-135.901 9.07959 0)
(-249.797 8.70356 0)
(-273.37 7.00896 0)
(-255.248 5.87986 0)
(-188.339 4.78033 0)
(-100.17 3.86533 0)
(2.41521 2.25375 0)
(111.088 0.724363 0)
(222.245 -0.917112 0)
(310.924 -2.59769 0)
(344.267 -3.80884 0)
(349.436 -3.3472 0)
(351.424 -2.04026 0)
(353.565 -0.311206 0)
(346.516 0.440018 0)
(276.96 1.24399 0)
(4.37039 2.05003 0)
(-173.285 2.68032 0)
(-175.599 2.96262 0)
(-151.443 3.16844 0)
(-110.924 3.33954 0)
(-70.7501 3.66204 0)
(-34.8664 4.10195 0)
(-1.22032 4.44051 0)
(31.8955 4.61444 0)
(65.1515 4.76049 0)
(98.7608 5.08116 0)
(133.07 5.26545 0)
(168.485 5.2535 0)
(205.984 5.38708 0)
(248.973 6.28359 0)
(300.591 8.32427 0)
(340.517 10.3344 0)
(348.682 11.0793 0)
(340.238 10.9326 0)
(254.746 8.53853 0)
(18.542 1.35006 0)
(-71.7399 -2.38964 0)
(-69.5797 -3.59537 0)
(-50.0985 -4.51654 0)
(-20.3176 -5.26059 0)
(5.10588 -5.84569 0)
(24.8002 -5.94063 0)
(42.7184 -5.81248 0)
(61.0051 -5.54531 0)
(80.1283 -5.01648 0)
(99.9251 -4.43714 0)
(119.893 -3.97065 0)
(139.301 -3.5463 0)
(157.679 -3.22095 0)
(176.048 -2.92747 0)
(198.682 -2.67986 0)
(234.356 -2.43245 0)
(280.557 -1.42142 0)
(298.144 0.464292 0)
(294.362 2.15717 0)
(248.34 3.81569 0)
(92.9524 4.74858 0)
(-3.91571 4.97628 0)
(-7.74376 5.07881 0)
(1.00267 5.11373 0)
(22.7262 5.21466 0)
(46.1389 5.17654 0)
(62.7021 4.85263 0)
(74.5417 4.57272 0)
(85.5016 4.50051 0)
(97.7519 4.52449 0)
(111.925 4.5411 0)
(127.313 4.5163 0)
(142.317 4.386 0)
(155.504 4.03834 0)
(166.924 3.33277 0)
(178.905 2.33367 0)
(197.253 1.27349 0)
(230.09 0.301629 0)
(263.233 -0.571374 0)
(270.127 -1.18825 0)
(263.074 -1.87818 0)
(208.716 -2.3089 0)
(81.6331 -1.95848 0)
(28.947 -1.74339 0)
(28.1569 -1.67759 0)
(35.547 -1.73503 0)
(53.3819 -1.96509 0)
(73.0726 -2.12755 0)
(86.2696 -2.18804 0)
(94.6753 -2.27242 0)
(102.088 -2.26589 0)
(110.739 -2.09225 0)
(121.615 -1.7063 0)
(134.223 -1.07167 0)
(146.599 -0.225043 0)
(156.884 0.701604 0)
(165.27 1.51021 0)
(173.976 2.10491 0)
(187.386 2.29887 0)
(211.393 2.18617 0)
(237.496 1.92826 0)
(244.511 1.65269 0)
(240.694 1.38321 0)
(211.144 1.12681 0)
(120.893 1.08173 0)
(55.2739 1.38565 0)
(49.1676 1.73619 0)
(52.9599 2.0317 0)
(63.8948 2.39311 0)
(81.4828 2.66985 0)
(96.6654 2.7584 0)
(105.11 2.62624 0)
(110.236 2.33988 0)
(115.237 2.00171 0)
(121.89 1.67156 0)
(130.921 1.35099 0)
(141.3 1.03106 0)
(150.632 0.714161 0)
(157.893 0.407332 0)
(164.57 0.0816854 0)
(173.873 -0.263074 0)
(190.424 -0.661851 0)
(211.316 -1.00371 0)
(218.727 -1.05479 0)
(217.367 -0.918693 0)
(200.16 -0.642191 0)
(137.728 -0.386584 0)
(68.9553 -0.322223 0)
(56.429 -0.60665 0)
(58.4482 -0.882228 0)
(66.2507 -1.10479 0)
(82.2795 -1.23874 0)
(100.232 -1.40537 0)
(110.785 -1.50416 0)
(115.226 -1.93063 0)
(118.299 -2.61101 0)
(121.879 -3.536 0)
(126.938 -4.75716 0)
(134.062 -6.15809 0)
(142.493 -7.57746 0)
(150.273 -8.86093 0)
(156.708 -9.93087 0)
(163.359 -10.7575 0)
(173.629 -11.3477 0)
(190.558 -11.7311 0)
(205.699 -11.58 0)
(210.705 -11.0502 0)
(207.448 -10.4364 0)
(184.088 -9.4288 0)
(118.296 -7.88237 0)
(67.2484 -6.4683 0)
(59.5429 -5.6931 0)
(63.5375 -5.03541 0)
(73.5482 -4.35531 0)
(90.6619 -3.80268 0)
(105.972 -3.48825 0)
(112.767 -3.4316 0)
(115.995 -3.65378 0)
(117.146 -4.05746 0)
(118.524 -4.45985 0)
(122.109 -5.01641 0)
(127.205 -5.5848 0)
(134.096 -6.05508 0)
(142.007 -6.50247 0)
(149.246 -6.95457 0)
(155.404 -7.23654 0)
(162.687 -7.25217 0)
(174.111 -6.87101 0)
(188.054 -5.98522 0)
(196.311 -4.90382 0)
(195.144 -3.86095 0)
(182.339 -2.62491 0)
(139.788 -1.43529 0)
(80.4508 -0.282871 0)
(61.9708 0.89646 0)
(59.8245 2.06291 0)
(67.4267 3.35543 0)
(83.7904 4.5968 0)
(102.979 5.67917 0)
(116.313 6.39283 0)
(120.685 6.54179 0)
(120.709 6.43941 0)
(120.67 6.28319 0)
(122.585 5.95719 0)
(127.71 5.51688 0)
(135.888 4.99296 0)
(145.066 4.09634 0)
(152.889 2.57425 0)
(159.638 0.47852 0)
(168.702 -1.86637 0)
(184.207 -4.60323 0)
(197.567 -7.17538 0)
(197.992 -8.63237 0)
(183.707 -9.49619 0)
(140.86 -9.07327 0)
(87.0895 -7.38592 0)
(71.544 -6.24498 0)
(71.637 -5.58014 0)
(84.5902 -4.87774 0)
(106.655 -3.77691 0)
(122.84 -2.04381 0)
(125.375 -0.269146 0)
(122.222 1.00084 0)
(119.377 2.34317 0)
(118.95 3.34167 0)
(122.825 4.32477 0)
(131.055 4.92684 0)
(141.218 5.00796 0)
(152.033 4.61316 0)
(165.213 3.89571 0)
(181.897 2.72378 0)
(191.209 0.9891 0)
(184.694 -0.853711 0)
(152.876 -3.26217 0)
(109.512 -7.02784 0)
(81.6606 -10.9966 0)
(82.0384 -15.7345 0)
(99.0925 -20.9432 0)
(120.53 -24.1082 0)
(131.798 -24.3517 0)
(132.29 -21.7552 0)
(130.339 -18.6314 0)
(132.366 -15.5709 0)
(145.23 -10.9235 0)
(166.52 -1.68161 0)
(185.255 9.58983 0)
(192.059 16.4213 0)
(186.042 19.7906 0)
(165.549 20.2921 0)
(134.625 17.9537 0)
(115.652 17.6199 0)
(113.25 17.3648 0)
(121.155 16.8222 0)
(127.261 14.085 0)
(134.921 9.97969 0)
(146.497 4.83765 0)
(147.788 1.11094 0)
(139.564 -1.28987 0)
(128.923 -3.37165 0)
(123.688 -4.55729 0)
(125.73 -5.34459 0)
(135.216 -5.82774 0)
(144.094 -5.22444 0)
(144.372 -4.02865 0)
(139.907 -2.70316 0)
(133.245 -1.67832 0)
(130.207 -1.42351 0)
(130.872 -1.35461 0)
(135.362 -1.14061 0)
(140.28 -0.695716 0)
(141.153 -0.306924 0)
(139.67 -0.0216468 0)
(136.6 0.141163 0)
(135.053 0.0730563 0)
(135.245 -0.048636 0)
(136.873 -0.215516 0)
(138.695 -0.312352 0)
(138.904 -0.284027 0)
(138.23 -0.191058 0)
(136.641 0.00650425 0)
(135.773 0.206581 0)
(135.808 0.30534 0)
(136.39 0.371063 0)
(137.123 0.354468 0)
(137.235 0.312496 0)
(136.988 0.274888 0)
(136.427 0.249988 0)
(136.146 0.241796 0)
(136.187 0.23337 0)
(136.537 0.215163 0)
(137.044 0.183345 0)
(137.216 0.138422 0)
(137.139 0.0973026 0)
(136.914 0.0411586 0)
(136.704 -0.0129378 0)
(136.648 -0.0458836 0)
(136.699 -0.0718104 0)
(136.83 -0.0805307 0)
(136.889 -0.0584534 0)
(136.84 -0.0278515 0)
(136.719 0.0211537 0)
(136.564 0.0693214 0)
(136.479 0.0946517 0)
(136.448 0.0998368 0)
(136.43 0.0988052 0)
(136.4 0.0963454 0)
(136.343 0.0917058 0)
(136.285 0.0902713 0)
(136.26 0.0928455 0)
(136.275 0.0947347 0)
(136.352 0.0936508 0)
(136.453 0.0842033 0)
(136.495 0.0656304 0)
(136.475 0.0491719 0)
(136.418 0.0272358 0)
(136.325 0.00658137 0)
(136.212 -0.010525 0)
(136.098 -0.0230758 0)
(135.989 -0.0270877 0)
(135.882 -0.0217761 0)
(135.79 -0.01278 0)
(-2404.89 -3.91779 0)
(-823.22 3.96616 0)
(-137.92 6.04075 0)
(-248.497 4.39151 0)
(-271.062 3.66738 0)
(-253.956 5.86687 0)
(-187.024 4.414 0)
(-99.1624 3.66994 0)
(3.00109 2.63159 0)
(111.023 1.9481 0)
(221.39 0.741258 0)
(308.55 -1.02168 0)
(341.748 -2.4528 0)
(347.791 -2.39976 0)
(349.777 -1.99122 0)
(351.954 -1.76572 0)
(344.842 -1.9054 0)
(276.174 -1.941 0)
(6.00937 -0.646212 0)
(-171.975 0.748676 0)
(-174.134 1.30208 0)
(-149.93 1.69682 0)
(-109.347 2.3119 0)
(-69.1172 3.17909 0)
(-33.3215 4.00796 0)
(-0.0225548 4.47695 0)
(32.5229 4.70269 0)
(65.1169 5.08102 0)
(98.1956 5.64943 0)
(132.092 5.95013 0)
(167.252 5.98903 0)
(204.977 6.27553 0)
(249.066 7.4228 0)
(301.514 9.57013 0)
(339.133 11.3827 0)
(346.415 11.5724 0)
(337.117 11.1331 0)
(244.732 7.82289 0)
(7.01735 -0.465354 0)
(-74.2817 -4.70249 0)
(-71.2803 -6.12614 0)
(-50.8918 -7.21812 0)
(-20.6538 -8.02497 0)
(5.06178 -8.68123 0)
(25.2063 -9.15128 0)
(43.6474 -9.43488 0)
(62.3917 -9.48134 0)
(81.8485 -9.24082 0)
(101.746 -8.84596 0)
(121.566 -8.27508 0)
(140.806 -7.47972 0)
(159.237 -6.53764 0)
(177.843 -5.60379 0)
(200.725 -4.75965 0)
(236.683 -3.75045 0)
(283.781 -2.59175 0)
(302.032 -1.06032 0)
(298.192 0.630284 0)
(251.62 2.6152 0)
(93.9624 3.76239 0)
(-3.76793 3.90605 0)
(-7.71056 3.98259 0)
(0.898275 4.08137 0)
(22.4602 4.23409 0)
(45.4108 4.23551 0)
(61.5261 3.96805 0)
(73.2504 3.85768 0)
(84.3527 3.8924 0)
(96.7708 3.99448 0)
(110.954 4.13275 0)
(126.156 4.34447 0)
(140.875 4.53938 0)
(153.772 4.54431 0)
(164.969 4.22889 0)
(176.817 3.61812 0)
(195.055 2.88018 0)
(227.748 2.01802 0)
(261.249 1.15658 0)
(268.544 0.576048 0)
(261.443 -0.00650384 0)
(208.12 -0.300843 0)
(81.8621 0.25169 0)
(28.2847 0.649293 0)
(27.4266 0.765884 0)
(34.8659 0.772889 0)
(52.7109 0.66364 0)
(72.4837 0.58381 0)
(85.7719 0.527676 0)
(94.2699 0.425147 0)
(101.848 0.404136 0)
(110.787 0.546419 0)
(122.004 0.856959 0)
(134.83 1.32266 0)
(147.19 1.8702 0)
(157.304 2.33603 0)
(165.409 2.58537 0)
(173.778 2.55946 0)
(186.837 2.36805 0)
(210.429 1.88563 0)
(236.538 1.14965 0)
(243.643 0.472898 0)
(239.91 0.0145347 0)
(210.749 -0.417229 0)
(121.205 -0.532789 0)
(55.8718 -0.288392 0)
(49.8268 0.00730835 0)
(53.5328 0.240407 0)
(64.4328 0.540406 0)
(81.9142 0.863948 0)
(96.9428 1.10246 0)
(105.248 1.22142 0)
(110.277 1.27989 0)
(115.253 1.32535 0)
(121.943 1.38193 0)
(131.083 1.41842 0)
(141.548 1.40465 0)
(150.839 1.2702 0)
(157.986 1.01729 0)
(164.563 0.699851 0)
(173.774 0.345365 0)
(190.323 0.007215 0)
(211.531 -0.15926 0)
(219.199 -0.0487928 0)
(218.004 0.132256 0)
(200.868 0.324185 0)
(138.166 0.383331 0)
(68.8906 0.0529176 0)
(56.332 -0.476828 0)
(58.3979 -0.97066 0)
(66.312 -1.50221 0)
(82.4385 -1.99152 0)
(100.275 -2.43108 0)
(110.297 -3.14518 0)
(114.205 -4.17493 0)
(117.018 -5.29594 0)
(120.295 -6.53512 0)
(125.058 -7.79155 0)
(132.191 -8.8673 0)
(140.951 -9.6892 0)
(149.152 -10.3605 0)
(155.888 -11.011 0)
(162.708 -11.6431 0)
(173.079 -12.2385 0)
(190.233 -12.6717 0)
(206.123 -12.7179 0)
(211.257 -12.3243 0)
(208.345 -11.8539 0)
(185.727 -10.9645 0)
(120.524 -9.68634 0)
(68.4168 -8.57671 0)
(60.4122 -7.89628 0)
(64.4253 -7.30785 0)
(74.4603 -6.68369 0)
(91.3619 -6.17524 0)
(106.334 -5.88838 0)
(112.995 -5.81801 0)
(116.17 -5.77541 0)
(117.141 -5.72609 0)
(118.258 -5.72943 0)
(121.674 -5.81428 0)
(126.827 -5.9365 0)
(133.851 -6.02595 0)
(141.906 -6.10105 0)
(149.232 -6.19391 0)
(155.554 -6.30903 0)
(163.158 -6.20559 0)
(175.276 -5.76007 0)
(190.08 -4.83881 0)
(198.459 -3.72314 0)
(197.501 -2.72579 0)
(184.926 -1.49463 0)
(142.41 -0.19063 0)
(82.664 1.12381 0)
(64.2717 2.14985 0)
(62.2409 3.01323 0)
(69.8102 4.02022 0)
(86.0467 5.0261 0)
(104.926 5.89854 0)
(117.569 6.4977 0)
(121.119 6.66051 0)
(120.711 6.40768 0)
(120.557 6.02228 0)
(122.481 5.48316 0)
(127.646 4.87123 0)
(135.633 4.14813 0)
(144.137 3.16638 0)
(150.991 1.71427 0)
(156.791 -0.183531 0)
(165.026 -2.4798 0)
(180.348 -5.03812 0)
(194.82 -7.20421 0)
(196.826 -8.36026 0)
(183.472 -8.76894 0)
(143.01 -8.03047 0)
(89.2598 -6.40067 0)
(72.7701 -5.54355 0)