/*--------------------------------*- C++ -*----------------------------------*\
| =========                 |                                                 |
| \\      /  F ield         | OpenFOAM: The Open Source CFD Toolbox           |
|  \\    /   O peration     | Version:  2306                                  |
|   \\  /    A nd           | Website:  www.openfoam.com                      |
|    \\/     M anipulation  |                                                 |
\*---------------------------------------------------------------------------*/
FoamFile
{
    version     2.0;
    format      ascii;
    arch        "LSB;label=32;scalar=64";
    class       volVectorField;
    location    "0.12";
    object      U;
}
// * * * * * * * * * * * * * * * * * * * * * * * * * * * * * * * * * * * * * //

dimensions      [0 1 -1 0 0 0 0];

internalField   nonuniform List<vector> 
6000
(
(500 9.74091e-14 0)
(500 7.78035e-14 0)
(500 1.46708e-13 0)
(500 2.08607e-14 0)
(500 -9.43674e-14 0)
(500 -7.77028e-14 0)
(500 -1.32239e-13 0)
(500 -5.70917e-16 0)
(500 5.0715e-14 0)
(500 2.03206e-13 0)
(500 9.7534e-14 0)
(500 7.31382e-14 0)
(500 1.14895e-13 0)
(500 7.35487e-14 0)
(500 2.95137e-14 0)
(500 5.05837e-14 0)
(500 -5.69359e-15 0)
(500 7.04434e-16 0)
(500 4.45515e-14 0)
(500 6.85943e-14 0)
(500 2.84387e-14 0)
(500 -2.75957e-15 0)
(500 5.40232e-14 0)
(500 9.09656e-14 0)
(500 3.12526e-14 0)
(500 8.02072e-14 0)
(500 8.35951e-14 0)
(500 -3.3346e-14 0)
(500 -2.22431e-14 0)
(500 -5.56003e-14 0)
(500 -8.21013e-14 0)
(500 -5.10595e-14 0)
(500 -1.73877e-14 0)
(500 1.40933e-13 0)
(500 2.80918e-13 0)
(500 1.99329e-13 0)
(500 1.30108e-13 0)
(500 3.1015e-14 0)
(500 -3.43204e-14 0)
(500 -4.7748e-14 0)
(500 5.21775e-14 0)
(500 -4.93952e-14 0)
(500 -1.8942e-13 0)
(500 2.9327e-13 0)
(500 -1.34157e-12 0)
(500 3.44048e-12 0)
(500 2.54725e-12 0)
(500 -3.04227e-11 0)
(500 1.22772e-10 0)
(500 4.36742e-11 0)
(500 -1.42711e-09 0)
(500 6.75171e-09 0)
(500 -8.2111e-09 0)
(500 -4.47555e-08 0)
(500 3.59332e-07 0)
(499.999 -1.091e-06 0)
(499.998 2.30241e-06 0)
(499.995 6.83898e-08 0)
(499.989 -1.09299e-05 0)
(499.974 3.81683e-05 0)
(499.944 -3.99468e-05 0)
(499.884 -7.71195e-06 0)
(499.777 0.000244578 0)
(499.609 -0.000380041 0)
(499.42 0.000280806 0)
(499.313 0.000407347 0)
(499.302 -2.23155e-05 0)
(499.312 -6.37209e-05 0)
(499.356 -2.61293e-05 0)
(499.46 -1.35511e-05 0)
(499.642 -0.000515836 0)
(499.902 0.000537749 0)
(500.226 0.00150627 0)
(500.597 -0.00170967 0)
(500.993 -0.00139439 0)
(501.395 0.00452769 0)
(501.794 0.00250042 0)
(502.186 -0.00533325 0)
(502.564 -0.00229381 0)
(502.916 0.00755347 0)
(503.243 0.00442999 0)
(503.55 -0.00605694 0)
(503.828 -0.00432882 0)
(504.067 0.00628895 0)
(504.268 0.00626428 0)
(504.442 -0.00339257 0)
(504.588 -0.00559626 0)
(504.708 0.000241537 0)
(504.801 0.00538472 0)
(504.882 0.00200349 0)
(504.954 -0.00289279 0)
(505.02 -0.00306302 0)
(505.08 0.00011279 0)
(505.132 0.00280148 0)
(505.182 0.000867409 0)
(505.231 -0.0020817 0)
(505.275 -0.00178613 0)
(505.303 8.48496e-05 0)
(505.312 0.00103218 0)
(505.312 0.000904881 0)
(505.312 -7.75127e-05 0)
(505.311 -0.000752023 0)
(505.309 -0.000690249 0)
(505.303 -0.000198882 0)
(505.293 0.000199613 0)
(505.279 0.000389983 0)
(505.26 0.00012147 0)
(505.24 -0.00053509 0)
(505.218 -0.000164322 0)
(505.198 0.000326582 0)
(505.18 3.69149e-05 0)
(505.165 -0.000273097 0)
(505.154 -0.000287663 0)
(505.145 -0.000119681 0)
(505.138 7.68277e-05 0)
(505.132 0.000233487 0)
(505.128 0.000128547 0)
(505.125 -2.03795e-05 0)
(505.121 -7.81274e-05 0)
(505.118 -0.000120102 0)
(505.115 -0.000119074 0)
(505.112 -4.58958e-05 0)
(505.11 4.98982e-05 0)
(505.109 9.09852e-05 0)
(505.109 0.000158583 0)
(505.11 0.000129058 0)
(505.111 -1.61701e-05 0)
(505.112 -8.51349e-05 0)
(505.114 -0.000177237 0)
(505.117 -0.000205847 0)
(505.121 -0.000104765 0)
(505.127 5.20537e-05 0)
(505.135 0.000119039 0)
(505.144 0.000145054 0)
(505.154 0.000122163 0)
(505.164 2.73667e-05 0)
(505.174 -2.43408e-05 0)
(505.182 -6.68514e-05 0)
(505.19 -7.4204e-05 0)
(505.194 -5.97684e-06 0)
(505.199 5.27101e-05 0)
(505.202 8.43271e-05 0)
(505.202 0.000118169 0)
(505.203 0.000104047 0)
(505.203 2.49815e-05 0)
(505.203 -8.49489e-05 0)
(505.201 -0.000128734 0)
(505.199 -0.000131348 0)
(505.194 -0.000117325 0)
(505.188 -3.87982e-05 0)
(505.181 1.34702e-05 0)
(505.174 4.07315e-05 0)
(505.167 3.64559e-05 0)
(505.162 -2.97804e-06 0)
(505.159 -5.21232e-05 0)
(505.155 -5.96195e-05 0)
(505.152 -5.15359e-05 0)
(505.15 -1.77008e-05 0)
(505.147 2.929e-05 0)
(505.144 4.60648e-05 0)
(505.142 4.31073e-05 0)
(505.14 1.78272e-05 0)
(505.139 -2.24633e-05 0)
(505.137 -4.17445e-05 0)
(505.133 -4.16002e-05 0)
(505.128 -3.06373e-05 0)
(505.123 -1.55677e-05 0)
(505.117 1.74916e-06 0)
(505.114 1.92741e-05 0)
(505.113 2.81602e-05 0)
(505.113 3.30572e-05 0)
(505.115 2.12341e-05 0)
(505.118 1.1421e-06 0)
(505.122 -2.68368e-06 0)
(505.129 -4.50593e-06 0)
(505.137 -1.41371e-05 0)
(505.147 8.70942e-06 0)
(505.155 7.70348e-05 0)
(505.164 0.000102056 0)
(505.171 9.70909e-05 0)
(505.176 5.70126e-05 0)
(505.181 -1.56744e-05 0)
(505.185 -6.90119e-05 0)
(505.189 -8.17724e-05 0)
(505.193 -8.22082e-05 0)
(505.197 -4.08926e-05 0)
(505.199 -2.74143e-06 0)
(505.2 5.60194e-06 0)
(505.2 2.83198e-05 0)
(505.2 3.70474e-05 0)
(505.201 1.00867e-05 0)
(505.2 -2.73745e-05 0)
(505.198 -4.47734e-05 0)
(505.194 -4.96361e-05 0)
(505.189 -2.25316e-05 0)
(505.182 1.66453e-05 0)
(505.176 3.49022e-05 0)
(505.169 6.11423e-05 0)
(505.164 6.55998e-05 0)
(505.16 3.04379e-05 0)
(505.157 -1.32868e-05 0)
(505.154 -3.1405e-05 0)
(505.151 -5.23091e-05 0)
(505.149 -5.81513e-05 0)
(505.147 -6.61905e-06 0)
(505.144 6.76539e-05 0)
(505.143 8.85354e-05 0)
(505.142 8.92851e-05 0)
(505.142 1.11074e-05 0)
(505.141 -8.29398e-05 0)
(505.14 -0.000116133 0)
(505.137 -0.000135768 0)
(505.133 -0.000143091 0)
(505.127 -8.19353e-05 0)
(505.12 -2.96421e-06 0)
(505.113 3.66019e-05 0)
(505.109 8.60692e-05 0)
(505.108 9.95382e-05 0)
(505.11 2.21138e-05 0)
(505.112 -4.9962e-05 0)
(505.115 -7.39292e-05 0)
(505.119 -7.72907e-05 0)
(505.126 -1.75518e-05 0)
(505.134 7.3979e-05 0)
(505.145 0.00016881 0)
(505.158 0.000197221 0)
(505.168 0.000219425 0)
(505.176 0.000108916 0)
(505.181 -9.67742e-05 0)
(505.185 -0.000179787 0)
(505.187 -0.000196001 0)
(505.19 -0.000159387 0)
(505.19 -7.66217e-06 0)
(505.193 0.000101688 0)
(505.196 0.00013175 0)
(505.2 0.000170432 0)
(505.203 0.000115067 0)
(505.205 -1.61435e-05 0)
(505.206 -6.26948e-05 0)
(505.205 -9.01322e-05 0)
(505.204 -0.000109348 0)
(505.201 -0.000104787 0)
(505.197 -8.68129e-05 0)
(505.192 -6.78302e-05 0)
(505.186 -2.39269e-05 0)
(505.179 2.35791e-05 0)
(505.173 5.1742e-05 0)
(505.166 5.72884e-05 0)
(505.16 6.04794e-05 0)
(505.155 7.44497e-05 0)
(505.151 6.61975e-05 0)
(505.149 3.03172e-05 0)
(505.147 1.18329e-05 0)
(505.146 -2.30571e-05 0)
(505.146 -7.46742e-05 0)
(505.146 -0.000120669 0)
(505.144 -0.000117348 0)
(505.143 -9.12599e-05 0)
(505.141 -4.87801e-05 0)
(505.138 -6.99517e-06 0)
(505.133 1.92815e-05 0)
(505.129 3.89681e-05 0)
(505.124 6.35806e-05 0)
(505.117 6.55535e-05 0)
(505.11 6.0369e-05 0)
(505.105 9.0828e-05 0)
(505.101 0.000118668 0)
(505.101 0.000114939 0)
(505.101 7.0119e-05 0)
(505.102 1.49274e-06 0)
(505.105 -5.65873e-05 0)
(505.111 -8.30058e-05 0)
(505.121 -6.87949e-05 0)
(505.134 -2.72813e-05 0)
(505.148 -9.32807e-07 0)
(505.162 4.58078e-05 0)
(505.173 0.000107531 0)
(505.18 0.000136467 0)
(505.184 9.19701e-05 0)
(505.186 2.31129e-05 0)
(505.189 -2.62447e-05 0)
(505.192 -6.84103e-05 0)
(505.196 -0.000108823 0)
(505.201 -8.21055e-05 0)
(505.207 -4.72551e-05 0)
(505.211 -2.40643e-05 0)
(505.214 1.3743e-05 0)
(505.216 -5.85759e-06 0)
(505.215 -0.000101147 0)
(505.213 -0.000191798 0)
(505.211 -0.000198334 0)
(505.209 -0.000143703 0)
(505.206 5.21338e-05 0)
(505.201 0.000276145 0)
(505.196 0.000392949 0)
(505.189 0.000279694 0)
(505.182 0.000222332 0)
(505.174 9.44881e-05 0)
(505.168 -0.000137804 0)
(505.159 -0.000215374 0)
(500 1.64316e-13 0)
(500 1.24438e-13 0)
(500 7.36993e-14 0)
(500 -1.62681e-13 0)
(500 -2.79681e-13 0)
(500 -8.5629e-14 0)
(500 -7.02029e-14 0)
(500 1.58139e-13 0)
(500 2.47228e-13 0)
(500 4.16791e-13 0)
(500 2.60243e-13 0)
(500 3.09078e-13 0)
(500 3.32281e-13 0)
(500 7.96078e-14 0)
(500 2.8486e-14 0)
(500 9.48509e-14 0)
(500 6.52625e-14 0)
(500 -4.95144e-14 0)
(500 5.56974e-14 0)
(500 -1.25298e-14 0)
(500 -6.66136e-14 0)
(500 2.28496e-14 0)
(500 1.19676e-13 0)
(500 1.37896e-13 0)
(500 1.075e-13 0)
(500 4.37552e-14 0)
(500 -5.06595e-14 0)
(500 -1.73092e-13 0)
(500 -4.99506e-15 0)
(500 -1.2879e-13 0)
(500 -1.49939e-13 0)
(500 -4.83077e-14 0)
(500 -9.34186e-14 0)
(500 1.01257e-14 0)
(500 2.82885e-13 0)
(500 2.88598e-13 0)
(500 3.26736e-14 0)
(500 6.63877e-15 0)
(500 -1.25213e-13 0)
(500 -1.19004e-13 0)
(500 4.84137e-14 0)
(500 -1.62382e-13 0)
(500 -3.15176e-13 0)
(500 4.39568e-13 0)
(500 -2.71802e-12 0)
(500 5.96715e-12 0)
(500 -3.12172e-12 0)
(500 -4.73793e-11 0)
(500 2.08605e-10 0)
(500 -1.89887e-10 0)
(500 -1.6371e-09 0)
(500 8.67033e-09 0)
(500 -7.39498e-09 0)
(500 -8.76217e-08 0)
(500 5.42092e-07 0)
(499.999 -1.6478e-06 0)
(499.998 2.21165e-06 0)
(499.995 2.93761e-06 0)
(499.989 -2.33574e-05 0)
(499.974 6.00618e-05 0)
(499.944 -7.20933e-05 0)
(499.884 -6.74711e-05 0)
(499.777 0.000419554 0)
(499.609 -0.000713376 0)
(499.42 0.000228224 0)
(499.313 0.000539629 0)
(499.302 -8.87932e-05 0)
(499.312 -0.000129264 0)
(499.356 -8.38244e-05 0)
(499.46 -0.000121985 0)
(499.642 -0.000465549 0)
(499.902 0.000721708 0)
(500.227 0.000851278 0)
(500.597 -0.00213702 0)
(500.993 -0.000408954 0)
(501.395 0.0047032 0)
(501.796 0.000549843 0)
(502.188 -0.00650323 0)
(502.563 -0.0010463 0)
(502.914 0.00815166 0)
(503.247 0.0025547 0)
(503.552 -0.00794263 0)
(503.827 -0.00359081 0)
(504.065 0.00800927 0)
(504.271 0.00565924 0)
(504.446 -0.00466841 0)
(504.588 -0.00653018 0)
(504.706 0.00121725 0)
(504.801 0.00588681 0)
(504.884 0.00237358 0)
(504.957 -0.00302522 0)
(505.02 -0.00332105 0)
(505.079 0.000780591 0)
(505.132 0.00323547 0)
(505.184 0.00108218 0)
(505.232 -0.00223045 0)
(505.275 -0.00199759 0)
(505.302 0.000246301 0)
(505.312 0.0014004 0)
(505.313 0.00124731 0)
(505.313 0.000112439 0)
(505.312 -0.000955447 0)
(505.309 -0.00095194 0)
(505.303 -0.00030647 0)
(505.293 0.000402253 0)
(505.279 0.000651606 0)
(505.261 0.000345481 0)
(505.24 -0.000269335 0)
(505.218 -5.88337e-05 0)
(505.198 0.000424341 0)
(505.18 -1.68448e-05 0)
(505.165 -0.00051371 0)
(505.154 -0.000536353 0)
(505.145 -0.000284583 0)
(505.138 3.94885e-05 0)
(505.132 0.000350944 0)
(505.129 0.00035463 0)
(505.125 8.96848e-05 0)
(505.121 -2.22981e-05 0)
(505.118 -0.000144007 0)
(505.115 -0.000248819 0)
(505.112 -0.000204563 0)
(505.11 2.84587e-05 0)
(505.109 0.000174859 0)
(505.109 0.000377484 0)
(505.11 0.000465995 0)
(505.111 0.000208983 0)
(505.112 -3.09945e-05 0)
(505.114 -0.00027872 0)
(505.117 -0.000495358 0)
(505.121 -0.000428555 0)
(505.127 -9.59522e-05 0)
(505.135 0.000139448 0)
(505.144 0.000260546 0)
(505.154 0.000318665 0)
(505.164 0.000181584 0)
(505.174 4.18979e-05 0)
(505.182 -8.97225e-05 0)
(505.189 -0.000239961 0)
(505.195 -0.000214585 0)
(505.199 -7.50126e-05 0)
(505.202 1.7526e-05 0)
(505.202 0.000145894 0)
(505.203 0.000231728 0)
(505.203 0.000246641 0)
(505.203 0.000104617 0)
(505.201 -7.36107e-05 0)
(505.199 -0.000178097 0)
(505.194 -0.000270585 0)
(505.188 -0.000253926 0)
(505.181 -0.000148593 0)
(505.174 -3.10864e-05 0)
(505.167 8.43197e-05 0)
(505.162 0.000113984 0)
(505.159 4.27727e-06 0)
(505.155 -5.67229e-05 0)
(505.152 -0.000104141 0)
(505.15 -0.000119601 0)
(505.147 -7.06984e-06 0)
(505.144 9.65848e-05 0)
(505.142 0.000147705 0)
(505.14 0.000174587 0)
(505.139 1.72146e-05 0)
(505.137 -0.000121512 0)
(505.133 -0.000149067 0)
(505.128 -0.000157691 0)
(505.123 -0.000169028 0)
(505.117 -7.91601e-05 0)
(505.114 5.70008e-05 0)
(505.113 0.000114307 0)
(505.113 0.000183515 0)
(505.115 0.00011501 0)
(505.118 -1.72253e-05 0)
(505.122 -5.4222e-05 0)
(505.129 -0.000103101 0)
(505.137 -0.000201699 0)
(505.147 -0.000210524 0)
(505.156 0.000107874 0)
(505.164 0.000263241 0)
(505.171 0.000302323 0)
(505.176 0.000328643 0)
(505.18 0.000181255 0)
(505.185 -6.67503e-05 0)
(505.189 -0.000156494 0)
(505.193 -0.000276196 0)
(505.197 -0.000260149 0)
(505.199 -6.17602e-05 0)
(505.2 -6.59131e-06 0)
(505.2 0.000105501 0)
(505.2 0.000173461 0)
(505.201 8.78661e-05 0)
(505.2 -9.35514e-05 0)
(505.198 -0.00017483 0)
(505.194 -0.000292982 0)
(505.189 -0.000275374 0)
(505.182 -8.25871e-05 0)
(505.176 8.33735e-06 0)
(505.169 0.00017565 0)
(505.164 0.000340429 0)
(505.16 0.000309764 0)
(505.157 6.8563e-05 0)
(505.154 -2.75609e-05 0)
(505.151 -0.000133676 0)
(505.149 -0.000253745 0)
(505.147 -0.000192466 0)
(505.145 0.000105135 0)
(505.143 0.000249944 0)
(505.142 0.000422092 0)
(505.141 0.000434556 0)
(505.141 6.44157e-05 0)
(505.139 -0.000177882 0)
(505.137 -0.000317128 0)
(505.133 -0.000491929 0)
(505.127 -0.000520967 0)
(505.12 -0.000281462 0)
(505.114 -4.63025e-05 0)
(505.109 0.000212245 0)
(505.108 0.000454602 0)
(505.11 0.000285318 0)
(505.112 -4.59891e-05 0)
(505.114 -0.000163202 0)
(505.119 -0.00032115 0)
(505.126 -0.00039015 0)
(505.135 -0.000136918 0)
(505.146 0.000312227 0)
(505.158 0.000454277 0)
(505.168 0.000593298 0)
(505.176 0.000635444 0)
(505.181 0.000243853 0)
(505.184 -0.000228346 0)
(505.187 -0.000451141 0)
(505.19 -0.000660792 0)
(505.191 -0.000481589 0)
(505.193 -1.6948e-05 0)
(505.197 0.000177479 0)
(505.2 0.000408685 0)
(505.203 0.000528213 0)
(505.205 0.000292335 0)
(505.206 0.000108308 0)
(505.205 -1.71738e-05 0)
(505.204 -0.00018913 0)
(505.201 -0.000353907 0)
(505.197 -0.00035967 0)
(505.193 -0.000311412 0)
(505.186 -0.00024212 0)
(505.179 -0.000137107 0)
(505.173 3.2313e-05 0)
(505.166 0.00012703 0)
(505.16 0.000145947 0)
(505.155 0.000166526 0)
(505.151 0.000160544 0)
(505.149 0.000138191 0)
(505.147 0.000150395 0)
(505.146 0.000184951 0)
(505.145 9.96731e-05 0)
(505.145 -9.93174e-05 0)
(505.144 -0.000143539 0)
(505.143 -0.000152538 0)
(505.141 -0.000189102 0)
(505.138 -0.000250369 0)
(505.133 -0.000253671 0)
(505.129 -0.000226864 0)
(505.124 -0.00015373 0)
(505.117 -5.75462e-06 0)
(505.11 0.000155069 0)
(505.105 0.000332216 0)
(505.101 0.000384975 0)
(505.101 0.000388239 0)
(505.1 0.00032187 0)
(505.101 0.000103538 0)
(505.104 -0.00014124 0)
(505.111 -0.000250113 0)
(505.121 -0.000247261 0)
(505.134 -0.000129286 0)
(505.148 -1.81678e-05 0)
(505.162 0.000110022 0)
(505.173 0.000244837 0)
(505.18 0.000315105 0)
(505.184 0.00026707 0)
(505.186 4.05685e-05 0)
(505.189 -6.58363e-05 0)
(505.192 -0.000153193 0)
(505.196 -0.000224013 0)
(505.201 -0.000146629 0)
(505.207 -4.95042e-05 0)
(505.211 3.13488e-05 0)
(505.214 0.000178223 0)
(505.215 0.000212611 0)
(505.215 -6.78886e-05 0)
(505.213 -0.000502321 0)
(505.211 -0.000597207 0)
(505.209 -0.000636385 0)
(505.206 -0.000580195 0)
(505.202 -7.15415e-05 0)
(505.197 0.000553381 0)
(505.19 0.000720416 0)
(505.182 0.000777305 0)
(505.174 0.000790457 0)
(505.167 0.000642872 0)
(505.158 0.00029517 0)
(500 3.66684e-15 0)
(500 -7.25472e-14 0)
(500 -2.00067e-13 0)
(500 -3.54432e-13 0)
(500 -1.95537e-13 0)
(500 -1.91414e-13 0)
(500 -9.40959e-14 0)
(500 1.5114e-13 0)
(500 3.37016e-13 0)
(500 3.67391e-13 0)
(500 3.38776e-13 0)
(500 4.67136e-13 0)
(500 2.31044e-13 0)
(500 7.30103e-14 0)
(500 3.06999e-14 0)
(500 -9.34652e-14 0)
(500 -6.07111e-14 0)
(500 -1.76333e-13 0)
(500 -1.5413e-13 0)
(500 -1.78388e-13 0)
(500 -2.05816e-13 0)
(500 -8.07214e-15 0)
(500 1.48266e-13 0)
(500 -3.33049e-15 0)
(500 8.50836e-14 0)
(500 -2.9301e-14 0)
(500 3.79434e-15 0)
(500 -8.70479e-14 0)
(500 -5.93325e-14 0)
(500 -1.26044e-13 0)
(500 -5.77486e-14 0)
(500 3.57738e-14 0)
(500 -4.0418e-14 0)
(500 -7.9076e-15 0)
(500 7.31384e-14 0)
(500 1.71523e-13 0)
(500 1.31957e-13 0)
(500 4.20246e-14 0)
(500 -4.45142e-14 0)
(500 -1.87548e-14 0)
(500 8.08846e-15 0)
(500 -7.48727e-14 0)
(500 -3.27685e-13 0)
(500 7.98617e-13 0)
(500 -4.26563e-12 0)
(500 1.04911e-11 0)
(500 -1.1308e-11 0)
(500 -5.55373e-11 0)
(500 3.13051e-10 0)
(500 -4.31698e-10 0)
(500 -1.77899e-09 0)
(500 1.14359e-08 0)
(500 -1.24077e-08 0)
(500 -1.09792e-07 0)
(500 7.31913e-07 0)
(499.999 -2.21459e-06 0)
(499.998 3.1632e-06 0)
(499.995 3.44135e-06 0)
(499.989 -3.0763e-05 0)
(499.974 8.12371e-05 0)
(499.944 -9.02142e-05 0)
(499.884 -0.00010013 0)
(499.777 0.0005822 0)
(499.61 -0.000906912 0)
(499.42 0.000163601 0)
(499.313 0.000841022 0)
(499.302 -7.89757e-05 0)
(499.312 -0.000175768 0)
(499.356 -0.000129939 0)
(499.46 -0.000334481 0)
(499.642 -0.000436573 0)
(499.901 0.00112977 0)
(500.227 4.92256e-05 0)
(500.598 -0.00289177 0)
(500.992 0.00160819 0)
(501.394 0.00536153 0)
(501.797 -0.0024329 0)
(502.188 -0.00774436 0)
(502.561 0.00260283 0)
(502.913 0.00910962 0)
(503.248 -0.00123137 0)
(503.553 -0.0100327 0)
(503.826 -0.000225899 0)
(504.063 0.0100403 0)
(504.272 0.00340768 0)
(504.447 -0.00730084 0)
(504.589 -0.0063483 0)
(504.705 0.00352756 0)
(504.801 0.00615717 0)
(504.885 0.00114458 0)
(504.957 -0.00397967 0)
(505.021 -0.00304558 0)
(505.078 0.00206118 0)
(505.132 0.00336123 0)
(505.184 0.000234883 0)
(505.233 -0.00287438 0)
(505.275 -0.00179289 0)
(505.303 0.000842402 0)
(505.312 0.00165953 0)
(505.313 0.0013812 0)
(505.313 -5.28694e-05 0)
(505.312 -0.00127591 0)
(505.309 -0.00122426 0)
(505.303 -0.000451085 0)
(505.294 0.000415682 0)
(505.28 0.000679555 0)
(505.261 0.000278631 0)
(505.24 -0.000251163 0)
(505.218 0.000157482 0)
(505.198 0.000623331 0)
(505.18 -0.00013611 0)
(505.165 -0.000718845 0)
(505.154 -0.000689472 0)
(505.145 -0.000292548 0)
(505.138 0.000153394 0)
(505.133 0.000496628 0)
(505.129 0.000449997 0)
(505.125 0.000165611 0)
(505.121 -6.61237e-05 0)
(505.117 -0.000227105 0)
(505.115 -0.000331462 0)
(505.112 -0.000335264 0)
(505.11 -0.00023039 0)
(505.11 2.1359e-05 0)
(505.11 0.000443734 0)
(505.11 0.000642121 0)
(505.111 0.000415416 0)
(505.112 6.79396e-05 0)
(505.114 -0.000311291 0)
(505.117 -0.000607399 0)
(505.121 -0.000650367 0)
(505.127 -0.000328088 0)
(505.135 7.54676e-05 0)
(505.144 0.000360293 0)
(505.154 0.000411127 0)
(505.164 0.000309957 0)
(505.174 0.00012223 0)
(505.182 -2.2367e-05 0)
(505.189 -0.000212629 0)
(505.195 -0.000313332 0)
(505.199 -0.000185381 0)
(505.202 -5.21808e-05 0)
(505.203 9.9266e-05 0)
(505.203 0.000171537 0)
(505.203 0.000185743 0)
(505.203 9.03226e-05 0)
(505.201 -1.24055e-05 0)
(505.198 -7.56411e-05 0)
(505.194 -0.000195986 0)
(505.188 -0.000221965 0)
(505.181 -0.00015369 0)
(505.174 -2.56189e-05 0)
(505.168 4.33626e-05 0)
(505.163 7.11083e-05 0)
(505.159 -1.05701e-05 0)
(505.155 -6.41845e-05 0)
(505.152 -0.000130405 0)
(505.15 -0.000119365 0)
(505.147 2.09135e-05 0)
(505.145 0.000136813 0)
(505.143 0.000201756 0)
(505.14 0.000227825 0)
(505.139 7.1987e-05 0)
(505.137 -0.000139014 0)
(505.133 -0.000201366 0)
(505.128 -0.000202027 0)
(505.123 -0.000196413 0)
(505.117 -0.000129134 0)
(505.114 9.98348e-05 0)
(505.113 0.000205177 0)
(505.113 0.000254646 0)
(505.115 0.000152547 0)
(505.118 -7.5354e-05 0)
(505.122 -0.000147355 0)
(505.129 -0.000244252 0)
(505.137 -0.000282163 0)
(505.147 -0.000313125 0)
(505.156 9.79722e-07 0)
(505.164 0.000337725 0)
(505.171 0.000405173 0)
(505.176 0.000456468 0)
(505.18 0.00030779 0)
(505.184 -1.29951e-05 0)
(505.188 -0.000187737 0)
(505.193 -0.000327645 0)
(505.197 -0.000348037 0)
(505.199 -0.000153492 0)
(505.2 -3.06181e-05 0)
(505.2 0.000131569 0)
(505.2 0.000242796 0)
(505.2 0.000172505 0)
(505.2 -4.44702e-05 0)
(505.197 -0.000184806 0)
(505.194 -0.000303771 0)
(505.189 -0.000331987 0)
(505.183 -0.000149264 0)
(505.176 -2.14732e-05 0)
(505.17 0.000221236 0)
(505.164 0.00040813 0)
(505.16 0.000388124 0)
(505.157 0.000145084 0)
(505.154 1.44312e-05 0)
(505.151 -0.000127085 0)
(505.149 -0.000277961 0)
(505.147 -0.000248412 0)
(505.145 4.34143e-05 0)
(505.143 0.000229176 0)
(505.142 0.000440091 0)
(505.141 0.000512503 0)
(505.141 0.000218003 0)
(505.139 -0.000147767 0)
(505.137 -0.00035304 0)
(505.133 -0.000548931 0)
(505.127 -0.00061624 0)
(505.12 -0.000472455 0)
(505.114 -0.00018303 0)
(505.11 0.00016766 0)
(505.109 0.000479645 0)
(505.109 0.000408663 0)
(505.112 2.30527e-05 0)
(505.114 -0.000144139 0)
(505.119 -0.000349657 0)
(505.126 -0.000408098 0)
(505.135 -0.000307634 0)
(505.146 0.000123314 0)
(505.158 0.00048467 0)
(505.168 0.00064108 0)
(505.176 0.000739956 0)
(505.181 0.00046281 0)
(505.184 -7.75627e-05 0)
(505.187 -0.000453507 0)
(505.189 -0.000682986 0)
(505.191 -0.000651495 0)
(505.193 -0.000205262 0)
(505.197 7.99842e-05 0)
(505.201 0.000383909 0)
(505.203 0.000592268 0)
(505.205 0.000415261 0)
(505.205 0.000228213 0)
(505.205 7.2496e-05 0)
(505.204 -0.000131537 0)
(505.201 -0.000407022 0)
(505.198 -0.00042678 0)
(505.193 -0.000369095 0)
(505.187 -0.000276877 0)
(505.18 -0.000135151 0)
(505.173 0.000111868 0)
(505.166 0.000219592 0)
(505.16 0.000239409 0)
(505.155 0.000252185 0)
(505.151 0.000186486 0)
(505.149 0.000120422 0)
(505.147 0.000149113 0)
(505.146 0.00012586 0)
(505.145 7.05386e-06 0)
(505.145 -0.000162775 0)
(505.144 -0.000197819 0)
(505.142 -0.000182372 0)
(505.14 -0.000177744 0)
(505.137 -0.000240346 0)
(505.133 -0.000339624 0)
(505.129 -0.000349067 0)
(505.124 -0.000292424 0)
(505.117 -9.37514e-05 0)
(505.111 0.000151869 0)
(505.105 0.000418628 0)
(505.101 0.000492836 0)
(505.1 0.000545903 0)
(505.1 0.000454285 0)
(505.101 0.000177907 0)
(505.104 -0.000165552 0)
(505.111 -0.000339013 0)
(505.121 -0.000387576 0)
(505.134 -0.000313764 0)
(505.149 -0.000142169 0)
(505.162 3.9998e-05 0)
(505.173 0.00027611 0)
(505.18 0.000414447 0)
(505.184 0.000418802 0)
(505.186 0.000241854 0)
(505.189 6.23565e-05 0)
(505.192 -0.000145065 0)
(505.196 -0.000309894 0)
(505.201 -0.000246497 0)
(505.207 -0.000187217 0)
(505.211 -7.28326e-05 0)
(505.214 0.000232589 0)
(505.215 0.00036088 0)
(505.214 -7.55235e-05 0)
(505.212 -0.000549973 0)
(505.211 -0.000684208 0)
(505.209 -0.000765556 0)
(505.206 -0.000569155 0)
(505.203 6.11927e-05 0)
(505.197 0.000590613 0)
(505.19 0.000708734 0)
(505.182 0.00092745 0)
(505.174 0.00103524 0)
(505.167 0.000867421 0)
(505.158 0.000454152 0)
(500 -1.01445e-14 0)
(500 -2.51873e-13 0)
(500 -3.7271e-13 0)
(500 -3.24967e-13 0)
(500 -3.82984e-14 0)
(500 -1.08244e-13 0)
(500 1.01764e-13 0)
(500 4.20874e-13 0)
(500 6.70702e-13 0)
(500 5.41101e-13 0)
(500 5.61736e-13 0)
(500 4.27255e-13 0)
(500 6.67935e-14 0)
(500 1.79049e-13 0)
(500 2.65981e-15 0)
(500 -1.79762e-13 0)
(500 -2.92188e-13 0)
(500 -2.33582e-13 0)
(500 -2.92063e-13 0)
(500 -1.9806e-13 0)
(500 -2.05763e-13 0)
(500 -8.65434e-14 0)
(500 7.03448e-14 0)
(500 -4.8675e-14 0)
(500 1.06356e-14 0)
(500 3.41164e-14 0)
(500 7.84622e-14 0)
(500 -3.06878e-14 0)
(500 -1.91944e-13 0)
(500 -2.15049e-13 0)
(500 -1.36682e-13 0)
(500 9.28387e-14 0)
(500 1.0023e-13 0)
(500 1.67213e-13 0)
(500 1.01414e-13 0)
(500 8.59121e-14 0)
(500 7.16243e-14 0)
(500 -2.15864e-14 0)
(500 4.91931e-14 0)
(500 4.75447e-14 0)
(500 -2.34373e-14 0)
(500 1.27522e-13 0)
(500 -3.91096e-13 0)
(500 1.20038e-12 0)
(500 -5.51479e-12 0)
(500 1.5196e-11 0)
(500 -2.14586e-11 0)
(500 -5.20594e-11 0)
(500 3.70112e-10 0)
(500 -6.81913e-10 0)
(500 -1.49637e-09 0)
(500 1.20372e-08 0)
(500 -1.52385e-08 0)
(500 -1.20138e-07 0)
(500 8.20845e-07 0)
(499.999 -2.51171e-06 0)
(499.998 3.7098e-06 0)
(499.995 3.89596e-06 0)
(499.989 -3.51239e-05 0)
(499.974 8.96848e-05 0)
(499.944 -9.07962e-05 0)
(499.884 -0.000134508 0)
(499.777 0.0006647 0)
(499.61 -0.000927416 0)
(499.42 -2.58533e-05 0)
(499.314 0.000895025 0)
(499.302 0.000159284 0)
(499.312 -0.000127568 0)
(499.356 -0.000136981 0)
(499.46 -0.000521738 0)
(499.642 -0.000287063 0)
(499.901 0.00136216 0)
(500.227 -0.00104497 0)
(500.598 -0.00290679 0)
(500.991 0.00389191 0)
(501.395 0.00479322 0)
(501.798 -0.00564702 0)
(502.188 -0.00686095 0)
(502.56 0.00662388 0)
(502.913 0.00795864 0)
(503.248 -0.00557787 0)
(503.553 -0.00989775 0)
(503.825 0.00434736 0)
(504.063 0.0103463 0)
(504.273 0.000208242 0)
(504.446 -0.00921349 0)
(504.589 -0.00410623 0)
(504.704 0.00572141 0)
(504.801 0.00519514 0)
(504.886 -0.000778348 0)
(504.957 -0.00459055 0)
(505.021 -0.00162681 0)
(505.078 0.00333415 0)
(505.132 0.00284217 0)
(505.184 -0.000940001 0)
(505.233 -0.00329407 0)
(505.275 -0.00104964 0)
(505.302 0.00157639 0)
(505.312 0.00166015 0)
(505.313 0.00113674 0)
(505.313 -0.000505654 0)
(505.313 -0.00122854 0)
(505.31 -0.00105298 0)
(505.304 -0.000164466 0)
(505.294 0.000527809 0)
(505.28 0.000553281 0)
(505.262 2.40338e-05 0)
(505.24 -0.000209424 0)
(505.218 0.000444149 0)
(505.197 0.000812595 0)
(505.18 -0.000294855 0)
(505.166 -0.000850725 0)
(505.154 -0.000743846 0)
(505.145 -0.000187383 0)
(505.138 0.00033085 0)
(505.133 0.000640964 0)
(505.129 0.000440003 0)
(505.125 0.000184993 0)
(505.121 -0.000105492 0)
(505.117 -0.000357086 0)
(505.115 -0.000432226 0)
(505.112 -0.00044476 0)
(505.111 -0.000320468 0)
(505.11 0.000169897 0)
(505.11 0.000604863 0)
(505.11 0.000695494 0)
(505.111 0.000592373 0)
(505.112 9.78816e-05 0)
(505.114 -0.00037863 0)
(505.117 -0.000653692 0)
(505.121 -0.000641538 0)
(505.127 -0.000261758 0)
(505.135 0.000199087 0)
(505.145 0.000456256 0)
(505.155 0.000478017 0)
(505.164 0.000328293 0)
(505.174 0.00013557 0)
(505.182 -5.86942e-05 0)
(505.189 -0.000284643 0)
(505.195 -0.000368715 0)
(505.2 -0.000273097 0)
(505.202 -1.3383e-05 0)
(505.203 0.000185452 0)
(505.204 0.000228341 0)
(505.204 0.000140282 0)
(505.203 5.59437e-05 0)
(505.201 -1.12791e-05 0)
(505.198 -0.000155308 0)
(505.194 -0.000234946 0)
(505.188 -0.000211001 0)
(505.181 -0.000101873 0)
(505.175 4.84953e-05 0)
(505.168 0.000101629 0)
(505.163 6.23606e-05 0)
(505.159 -5.94326e-05 0)
(505.155 -0.000122599 0)
(505.152 -0.000188532 0)
(505.15 -0.000137874 0)
(505.147 7.86696e-05 0)
(505.145 0.000226261 0)
(505.143 0.000284101 0)
(505.141 0.000305821 0)
(505.139 0.000172313 0)
(505.136 -0.00011027 0)
(505.133 -0.000227865 0)
(505.128 -0.00023168 0)
(505.123 -0.000221359 0)
(505.117 -0.000181908 0)
(505.114 8.36933e-05 0)
(505.113 0.000288395 0)
(505.113 0.000317053 0)
(505.115 0.000228602 0)
(505.118 -7.3806e-05 0)
(505.122 -0.000182486 0)
(505.129 -0.00031455 0)
(505.138 -0.000353895 0)
(505.147 -0.000306992 0)
(505.156 -0.000172305 0)
(505.165 0.000282706 0)
(505.171 0.000431632 0)
(505.176 0.00050974 0)
(505.18 0.000418111 0)
(505.184 0.000129401 0)
(505.188 -0.000164427 0)
(505.193 -0.000353062 0)
(505.197 -0.000427154 0)
(505.199 -0.000239047 0)
(505.2 -5.48816e-05 0)
(505.2 0.00013728 0)
(505.201 0.000268901 0)
(505.2 0.000231476 0)
(505.199 2.50368e-05 0)
(505.197 -0.000154322 0)
(505.194 -0.000282315 0)
(505.189 -0.000338757 0)
(505.183 -0.00021202 0)
(505.176 -7.83975e-05 0)
(505.17 0.000184961 0)
(505.164 0.000399304 0)
(505.16 0.000416031 0)
(505.157 0.000163069 0)
(505.154 -5.66612e-06 0)
(505.151 -0.000106252 0)
(505.149 -0.000212601 0)
(505.147 -0.000184676 0)
(505.145 2.99108e-05 0)
(505.144 0.000197026 0)
(505.142 0.000397386 0)
(505.141 0.000506079 0)
(505.14 0.000317229 0)
(505.139 -9.76372e-05 0)
(505.136 -0.000338293 0)
(505.133 -0.000514945 0)
(505.128 -0.000592312 0)
(505.121 -0.000511333 0)
(505.114 -0.000307949 0)
(505.11 9.01295e-05 0)
(505.109 0.0004501 0)
(505.109 0.000456936 0)
(505.111 0.000137828 0)
(505.114 -6.81237e-05 0)
(505.119 -0.000259971 0)
(505.126 -0.000348849 0)
(505.135 -0.00025876 0)
(505.147 -6.56587e-05 0)
(505.158 0.000269083 0)
(505.168 0.000604604 0)
(505.176 0.000712212 0)
(505.18 0.000580537 0)
(505.183 0.000146009 0)
(505.186 -0.000312021 0)
(505.188 -0.000629702 0)
(505.191 -0.000719905 0)
(505.194 -0.000403289 0)
(505.198 -2.80719e-05 0)
(505.201 0.000264032 0)
(505.203 0.000545493 0)
(505.205 0.000442628 0)
(505.205 0.0003335 0)
(505.204 0.000166789 0)
(505.203 -0.000108623 0)
(505.201 -0.000473315 0)
(505.198 -0.000505691 0)
(505.193 -0.000463732 0)
(505.187 -0.000361578 0)
(505.18 -0.000131395 0)
(505.173 0.000230945 0)
(505.166 0.000311537 0)
(505.16 0.000336943 0)
(505.155 0.000344706 0)
(505.151 0.000134797 0)
(505.149 1.0654e-05 0)
(505.147 6.23997e-05 0)
(505.146 3.12575e-05 0)
(505.145 -5.48929e-05 0)
(505.145 -0.000163529 0)
(505.144 -0.000214324 0)
(505.142 -0.000217423 0)
(505.14 -0.000233038 0)
(505.137 -0.000317657 0)
(505.134 -0.000395925 0)
(505.13 -0.000365013 0)
(505.125 -0.000268317 0)
(505.118 7.37312e-05 0)
(505.111 0.000322979 0)
(505.105 0.000450152 0)
(505.101 0.000477957 0)
(505.1 0.000559956 0)
(505.1 0.000441579 0)
(505.101 0.0001866 0)
(505.104 -0.000120601 0)
(505.111 -0.000314586 0)
(505.121 -0.000399956 0)
(505.134 -0.000323992 0)
(505.149 -0.000135531 0)
(505.162 -3.62915e-05 0)
(505.173 9.56341e-05 0)
(505.18 0.000282406 0)
(505.184 0.000429075 0)
(505.186 0.000392165 0)
(505.189 0.000280596 0)
(505.192 8.44907e-05 0)
(505.196 -0.000158557 0)
(505.201 -0.000241675 0)
(505.207 -0.000182309 0)
(505.211 -0.000152996 0)
(505.214 3.37805e-05 0)
(505.215 8.37797e-05 0)
(505.214 -0.000229143 0)
(505.212 -0.000561542 0)
(505.211 -0.000643865 0)
(505.209 -0.000571144 0)
(505.206 -0.000274633 0)
(505.203 0.000277828 0)
(505.198 0.000607404 0)
(505.19 0.000746521 0)
(505.182 0.000967639 0)
(505.174 0.00103008 0)
(505.166 0.000573386 0)
(505.157 0.000209322 0)
(500 -1.67678e-13 0)
(500 -3.14195e-13 0)
(500 -3.21298e-13 0)
(500 -1.88175e-13 0)
(500 -1.52978e-13 0)
(500 -9.36053e-14 0)
(500 3.04766e-13 0)
(500 5.95779e-13 0)
(500 6.38125e-13 0)
(500 5.83587e-13 0)
(500 5.03468e-13 0)
(500 3.41517e-13 0)
(500 2.19119e-13 0)
(500 1.49866e-13 0)
(500 4.19814e-14 0)
(500 -2.15563e-13 0)
(500 -5.08728e-13 0)
(500 -4.69014e-13 0)
(500 -3.16159e-13 0)
(500 -1.98545e-13 0)
(500 -1.5669e-13 0)
(500 5.57797e-14 0)
(500 -7.42131e-14 0)
(500 -1.58431e-13 0)
(500 1.33318e-14 0)
(500 -2.48725e-14 0)
(500 -1.19598e-13 0)
(500 -2.0534e-13 0)
(500 -1.5378e-13 0)
(500 -1.02647e-13 0)
(500 -7.67929e-14 0)
(500 -8.81017e-14 0)
(500 4.60856e-14 0)
(500 4.10515e-13 0)
(500 3.69773e-13 0)
(500 1.84658e-13 0)
(500 9.51814e-14 0)
(500 3.39478e-14 0)
(500 6.81134e-14 0)
(500 -6.26165e-14 0)
(500 -8.79441e-14 0)
(500 6.87237e-14 0)
(500 -2.57426e-13 0)
(500 1.32859e-12 0)
(500 -6.3127e-12 0)
(500 1.91679e-11 0)