/*--------------------------------*- C++ -*----------------------------------*\
| =========                 |                                                 |
| \\      /  F ield         | OpenFOAM: The Open Source CFD Toolbox           |
|  \\    /   O peration     | Version:  2306                                  |
|   \\  /    A nd           | Website:  www.openfoam.com                      |
|    \\/     M anipulation  |                                                 |
\*---------------------------------------------------------------------------*/
FoamFile
{
    version     2.0;
    format      ascii;
    arch        "LSB;label=32;scalar=64";
    class       volScalarField;
    location    "0.16";
    object      rho;
}
// * * * * * * * * * * * * * * * * * * * * * * * * * * * * * * * * * * * * * //

dimensions      [1 -3 0 0 0 0 0];

internalField   nonuniform List<scalar> 
6000
(
48.0834
0.263864
0.233443
0.284868
0.300066
0.305437
0.309143
0.309283
0.305137
0.301407
0.296536
0.271307
0.205697
0.168666
0.16526
0.170438
0.180483
0.191888
0.201468
0.207166
0.210322
0.212687
0.215514
0.221093
0.232503
0.249305
0.266544
0.279458
0.28458
0.28225
0.273202
0.243521
0.191264
0.179252
0.184785
0.189633
0.193117
0.194967
0.197604
0.202382
0.208779
0.214574
0.217781
0.21908
0.219999
0.222385
0.228106
0.236877
0.246191
0.2563
0.263924
0.261034
0.25057
0.215701
0.180156
0.176463
0.180069
0.186263
0.191422
0.193971
0.1944
0.194275
0.194324
0.194955
0.196731
0.200097
0.204777
0.209735
0.213608
0.215752
0.216832
0.219113
0.223951
0.226721
0.224503
0.217186
0.194784
0.180392
0.179967
0.182593
0.185793
0.188469
0.189722
0.190206
0.190679
0.191468
0.192931
0.195498
0.199365
0.203732
0.207421
0.21004
0.210884
0.21085
0.212196
0.216026
0.217363
0.217984
0.2127
0.196602
0.185324
0.182601
0.181478
0.182031
0.183417
0.184716
0.185707
0.186693
0.187544
0.188497
0.189691
0.190787
0.191301
0.191352
0.191271
0.191462
0.192911
0.195907
0.197274
0.198284
0.196581
0.186531
0.176273
0.174582
0.173877
0.174753
0.176513
0.177882
0.178599
0.179291
0.180635
0.182947
0.18599
0.18873
0.19003
0.190051
0.189307
0.188337
0.187769
0.188358
0.190388
0.192182
0.19266
0.191654
0.185343
0.176002
0.173206
0.173353
0.17432
0.176449
0.178659
0.179931
0.180563
0.181166
0.18232
0.184546
0.187875
0.191388
0.193419
0.193981
0.193753
0.193264
0.192791
0.192417
0.191025
0.189517
0.186052
0.177599
0.169814
0.167938
0.167151
0.166952
0.167607
0.16857
0.168901
0.16872
0.168472
0.168491
0.168934
0.169973
0.171618
0.173274
0.174073
0.174279
0.174477
0.174978
0.176222
0.178053
0.178844
0.179051
0.177272
0.171162
0.165023
0.163879
0.16385
0.16463
0.166377
0.167516
0.167651
0.167353
0.166951
0.166759
0.166855
0.167227
0.167943
0.16875
0.169002
0.168341
0.16688
0.1652
0.163744
0.162707
0.162282
0.161573
0.160759
0.158697
0.153692
0.148685
0.147572
0.147625
0.148064
0.149266
0.150499
0.150845
0.150799
0.150615
0.150392
0.150243
0.150364
0.150987
0.152167
0.153379
0.153947
0.15403
0.154015
0.154175
0.154873
0.155806
0.155741
0.154747
0.151124
0.143459
0.13858
0.137796
0.137635
0.138292
0.139445
0.139757
0.139782
0.139784
0.139895
0.140231
0.140847
0.142051
0.144163
0.147186
0.150555
0.153444
0.155705
0.157839
0.160206
0.163277
0.167314
0.170508
0.172337
0.171382
0.167509
0.1653
0.166507
0.16911
0.173314
0.176957
0.178952
0.180544
0.18241
0.184624
0.187554
0.19147
0.196694
0.203062
0.209024
0.213613
0.218423
0.224489
0.232525
0.243228
0.254402
0.265074
0.271452
0.280102
0.295306
0.316332
0.34039
0.35902
0.374531
0.390414
0.407868
0.432454
0.470376
0.510162
48.0801
0.273582
0.234668
0.285517
0.299885
0.30457
0.307865
0.308057
0.304544
0.300898
0.295193
0.269965
0.205365
0.16803
0.164728
0.169837
0.17982
0.191242
0.200831
0.206749
0.210253
0.212948
0.216098
0.221958
0.233297
0.249675
0.26618
0.278677
0.284081
0.281884
0.273712
0.244812
0.192142
0.179318
0.18397
0.188508
0.192273
0.194585
0.197592
0.202496
0.208475
0.213412
0.216165
0.217418
0.218578
0.221572
0.227735
0.23635
0.245172
0.254552
0.261778
0.259167
0.249236
0.215771
0.180443
0.176733
0.180519
0.186831
0.191997
0.19418
0.194409
0.194217
0.194331
0.195211
0.197384
0.201151
0.206118
0.211069
0.21456
0.21644
0.217668
0.220376
0.225529
0.22824
0.225974
0.218672
0.196177
0.181284
0.180732
0.183149
0.186135
0.188598
0.189696
0.190072
0.190461
0.191256
0.19285
0.195615
0.199531
0.203778
0.20711
0.208788
0.209319
0.209379
0.211034
0.215099
0.216527
0.217288
0.212024
0.196106
0.184926
0.18245
0.181578
0.18234
0.18394
0.185268
0.186148
0.186946
0.187616
0.188394
0.189446
0.190507
0.191111
0.191344
0.191523
0.192008
0.193746
0.196893
0.19822
0.199046
0.197207
0.187174
0.17694
0.175263
0.174789
0.175774
0.177621
0.178978
0.179593
0.180078
0.181086
0.183052
0.185838
0.188579
0.190148
0.190319
0.189757
0.18903
0.188652
0.189346
0.191433
0.193058
0.193447
0.192234
0.18562
0.176079
0.173321
0.173324
0.174159
0.176137
0.17819
0.179323
0.179869
0.180437
0.181549
0.183587
0.186499
0.189522
0.191321
0.191789
0.191582
0.191242
0.191237
0.191443
0.19076
0.189795
0.187146
0.179228
0.170866
0.168742
0.16787
0.167539
0.168066
0.168925
0.169203
0.168959
0.168655
0.168634
0.169085
0.170182
0.171895
0.173568
0.174312
0.174449
0.17455
0.174966
0.176144
0.177967
0.178783
0.179011
0.177315
0.171373
0.165065
0.163768
0.163669
0.16434
0.165965
0.167011
0.167098
0.166664
0.166156
0.165889
0.165835
0.166072
0.16668
0.167556
0.168039
0.167626
0.166502
0.16529
0.164335
0.16392
0.163962
0.163378
0.162391
0.15989
0.15442
0.14929
0.148156
0.148161
0.148528
0.149657
0.150823
0.151105
0.151036
0.150848
0.150648
0.150531
0.150683
0.15134
0.15259
0.153957
0.154647
0.154723
0.154649
0.154733
0.155335
0.156115
0.155946
0.154952
0.151382
0.144021
0.139525
0.138828
0.138671
0.139246
0.140132
0.140284
0.140245
0.140224
0.140342
0.140733
0.141411
0.142605
0.144574
0.147401
0.150682
0.153651
0.156004
0.158165
0.160537
0.163585
0.167556
0.170582
0.172314
0.171166
0.167249
0.16522
0.166473
0.169112
0.173343
0.176969
0.178883
0.180295
0.181784
0.183757
0.186382
0.190055
0.195152
0.201606
0.208108
0.213061
0.217992
0.224241
0.23266
0.243633
0.25484
0.265523
0.271975
0.280466
0.295362
0.315742
0.339057
0.356847
0.371846
0.387569
0.40564
0.43164
0.469423
0.508692
48.0914
0.272886
0.237357
0.286874
0.299812
0.303603
0.306643
0.3072
0.304832
0.300774
0.293096
0.268072
0.20505
0.167398
0.16419
0.169119
0.178834
0.190006
0.199646
0.206183
0.210382
0.213575
0.217179
0.223417
0.23451
0.249847
0.265219
0.277721
0.283985
0.282039
0.274837
0.246311
0.192524
0.179206
0.182267
0.186745
0.191219
0.194474
0.198069
0.20281
0.207894
0.211738
0.214014
0.215494
0.217347
0.221099
0.227689
0.236045
0.243747
0.251883
0.25848
0.255958
0.246859
0.215983
0.181222
0.177359
0.181271
0.187563
0.192418
0.194014
0.194079
0.193878
0.194184
0.19562
0.198541
0.202785
0.207842
0.212249
0.214836
0.216478
0.218066
0.221383
0.227186
0.230396
0.228336
0.221296
0.198473
0.182632
0.181855
0.18391
0.18665
0.188893
0.189775
0.189957
0.190231
0.191069
0.192908
0.19592
0.199808
0.203638
0.206241
0.206947
0.207033
0.207374
0.209584
0.214053
0.21578
0.21661
0.211249
0.195471
0.184289
0.182056
0.181606
0.182809
0.184805
0.186157
0.186825
0.187309
0.187766
0.188385
0.189288
0.190289
0.190984
0.191385
0.191753
0.192454
0.194533
0.197965
0.199233
0.19981
0.197884
0.187868
0.17796
0.176485
0.176412
0.177556
0.179488
0.180768
0.181081
0.181262
0.18184
0.183211
0.185416
0.187921
0.189845
0.19055
0.190343
0.189884
0.189697
0.190597
0.192878
0.194275
0.194602
0.193148
0.185898
0.17601
0.173403
0.173231
0.173906
0.17573
0.177654
0.178657
0.179155
0.179775
0.180834
0.182418
0.184453
0.186643
0.188099
0.188671
0.1887
0.188591
0.189116
0.190199
0.190344
0.189974
0.188103
0.180946
0.172061
0.169593
0.168714
0.168372
0.168778
0.169444
0.169644
0.169352
0.168995
0.16892
0.169351
0.170463
0.172231
0.173957
0.174617
0.174676
0.1747
0.175
0.176073
0.177889
0.178664
0.178849
0.177243
0.171546
0.16501
0.163551
0.16342
0.164015
0.165514
0.16648
0.166483
0.165882
0.165173
0.164633
0.164343
0.164396
0.164898
0.165912
0.166733
0.166694
0.16614
0.165448
0.165037
0.165183
0.165625
0.165337
0.164552
0.161912
0.155668
0.150223
0.149097
0.149003
0.149255
0.150279
0.151295
0.151483
0.151344
0.151095
0.150882
0.150804
0.150993
0.151671
0.152949
0.154433
0.15532
0.155518
0.155489
0.155572
0.156009
0.156493
0.156164
0.155065
0.151344
0.144276
0.140362
0.139834
0.139877
0.140788
0.141516
0.141499
0.141256
0.141061
0.141139
0.141555
0.142268
0.143419
0.145208
0.147737
0.15083
0.153836
0.156315
0.15855
0.160947
0.16399
0.167872
0.170597
0.17214
0.170715
0.16664
0.164727
0.166045
0.168803
0.173212
0.176874
0.178698
0.179952
0.180925
0.182524
0.184618
0.187669
0.192213
0.19865
0.205897
0.211784
0.216965
0.223325
0.231839
0.242916
0.254097
0.264628
0.270673
0.278138
0.291963
0.310836
0.332358
0.349201
0.36404
0.38038
0.401398
0.43188
0.471999
0.511118
48.1433
0.237569
0.241053
0.2887
0.299381
0.301972
0.304823
0.305941
0.30455
0.300245
0.290961
0.266588
0.204858
0.166617
0.163716
0.168562
0.177901
0.188633
0.198164
0.205135
0.209944
0.213823
0.21825
0.225063
0.235848
0.250022
0.264264
0.27682
0.283985
0.282276
0.275876
0.247322
0.192421
0.178968
0.180548
0.1848
0.189878
0.194114
0.198263
0.20264
0.206587
0.209363
0.211305
0.213023
0.215639
0.220384
0.22712
0.234602
0.24083
0.247876
0.254483
0.252692
0.244764
0.216764
0.182615
0.178351
0.182343
0.188262
0.192646
0.1939
0.193685
0.193421
0.194075
0.196331
0.200227
0.205067
0.209844
0.213085
0.21487
0.21623
0.218076
0.221863
0.228334
0.232646
0.231122
0.224752
0.201786
0.184506
0.183397
0.184963
0.1874
0.189378
0.189953
0.189903
0.189988
0.190839
0.192917
0.196121
0.199935
0.203233
0.205002
0.205222
0.204893
0.205157
0.207569
0.212285
0.214397
0.215492
0.210185
0.194571
0.183468
0.181476
0.18145
0.18314
0.185562
0.186954
0.1875
0.187723
0.187973
0.188455
0.189287
0.19031
0.191187
0.191855
0.192567
0.193689
0.196226
0.199947
0.201228
0.201477
0.199336
0.18918
0.17944
0.1781
0.178341
0.179608
0.181487
0.182601
0.18269
0.182574
0.182745
0.183564
0.185129
0.187284
0.189508
0.190736
0.190968
0.190849
0.191018
0.192324
0.194835
0.195926
0.196115
0.194273
0.186206
0.175966
0.1735
0.173094
0.173537
0.175127
0.176876
0.177665
0.178015
0.178454
0.179192
0.180202
0.181533
0.183135
0.18452
0.185346
0.185806
0.186302
0.187479
0.18929
0.189982
0.190021
0.1887
0.182231
0.173111
0.170268
0.169419
0.169222
0.169705
0.170258
0.170291
0.169891
0.169497
0.169386
0.169812
0.170931
0.172737
0.174474
0.175028
0.174991
0.174903
0.175081
0.176083
0.177913
0.178627
0.17879
0.177274
0.171677
0.164777
0.163087
0.162908
0.163427
0.164731
0.165486
0.1652
0.164381
0.163517
0.162893
0.162581
0.162687
0.163439
0.164932
0.166194
0.166435
0.166269
0.165995
0.165875
0.166287
0.16702
0.167037
0.166499
0.16405
0.157515
0.151747
0.150576
0.15038
0.150558
0.15143
0.152171
0.152181
0.151895
0.151553
0.151296
0.151207
0.151396
0.152074
0.153406
0.155017
0.15604
0.156332
0.156357
0.156432
0.156638
0.156797
0.156297
0.155074
0.15115
0.144383
0.141073
0.140652
0.140917
0.142314
0.143543
0.143617
0.143257
0.142625
0.142313
0.142519
0.143127
0.14414
0.145739
0.148096
0.151045
0.154015
0.156579
0.158891
0.16133
0.164364
0.168128
0.170588
0.1719
0.170188
0.165955
0.164148
0.165477
0.16827
0.172734
0.176367
0.178073
0.17912
0.179658
0.180667
0.182227
0.184598
0.188517
0.194702
0.202561
0.209534
0.214999
0.22128
0.229562
0.240555
0.251543
0.2614
0.266395
0.271019
0.282251
0.298176
0.317623
0.333071
0.347019
0.363959
0.389229
0.427017
0.474198
0.516985
48.2132
0.184167
0.245144
0.290538
0.298971
0.300453
0.302907
0.304417
0.303586
0.299358
0.289539
0.265808
0.204865
0.166069
0.163407
0.16819
0.177188
0.187387
0.196615
0.203927
0.209504
0.214217
0.219391
0.226743
0.237222
0.250414
0.263762
0.276208
0.283851
0.282327
0.276382
0.247723
0.19203
0.178426
0.178984
0.183088
0.188593
0.193465
0.197884
0.201793
0.204694
0.206768
0.20845
0.210596
0.214041
0.21938
0.225781
0.232252
0.237508
0.244191
0.251414
0.250598
0.243708
0.218206
0.184593
0.179697
0.183504
0.188679
0.192456
0.193598
0.193274
0.193044
0.194192
0.197403
0.202253
0.20746
0.211362
0.213403
0.214571
0.215579
0.217529
0.221608
0.228823
0.234211
0.23332
0.227658
0.204886
0.1862
0.184783
0.18594
0.188132
0.189891
0.190238
0.189984
0.189891
0.190699
0.192912
0.196237
0.199899
0.202683
0.203686
0.203715
0.203371
0.203727
0.20609
0.21078
0.212942
0.214092
0.208946
0.193388
0.182424
0.180743
0.181042
0.183108
0.185778
0.187252
0.187796
0.187963
0.18816
0.188678
0.189671
0.190944
0.192134
0.193149
0.194204
0.195657
0.198506
0.202435
0.203771
0.203785
0.201302
0.190685
0.1811
0.179945
0.180401
0.181683
0.183444
0.18423
0.18404
0.183669
0.183567
0.183969
0.185045
0.186982
0.189153
0.190765
0.191422
0.191727
0.192292
0.194038
0.196692
0.197556
0.197588
0.195388
0.186547
0.175909
0.173431
0.172779
0.173015
0.174396
0.175901
0.176449
0.176573
0.176784
0.177191
0.177773
0.178689
0.180009
0.181372
0.18231
0.182981
0.183803
0.185356
0.187763
0.189094
0.189633
0.188819
0.182962
0.173767
0.170604
0.169808
0.169757
0.170424
0.171079
0.171125
0.170653
0.170209
0.170076
0.170481
0.17157
0.173366
0.174983
0.175406
0.175298
0.175126
0.175248
0.17624
0.178126
0.178849
0.179002
0.177448
0.171528
0.164174
0.162324
0.162082
0.162527
0.163591
0.164083
0.163627
0.162738
0.161919
0.161382
0.161164
0.161436
0.162477
0.164264
0.165699
0.166196
0.166304
0.1663
0.166454
0.167279
0.168384
0.168548
0.168006
0.165611
0.159097
0.153246
0.152136
0.151927
0.152215
0.153086
0.153579
0.153303
0.152699
0.152133
0.151717
0.151487
0.151579
0.152181
0.15354
0.155299
0.156463
0.156825
0.156886
0.156954
0.157076
0.156986
0.156388
0.154974
0.150812
0.144354
0.14165
0.141301
0.141645
0.143135
0.144966
0.145467
0.14541
0.144967
0.144372
0.144213
0.144504
0.145233
0.146513
0.148556
0.151248
0.154101
0.156691
0.159069
0.161582
0.164647
0.168263
0.170451
0.171578
0.169616
0.16525
0.163574
0.164909
0.167671
0.172007
0.175409
0.176902
0.177745
0.17801
0.178574
0.179838
0.181856
0.18525
0.190744
0.198214
0.205822
0.211918
0.217993
0.225718
0.236039
0.246513
0.254949
0.258555
0.258948
0.266391
0.278356
0.294651
0.30908
0.322568
0.340586
0.370146
0.415308
0.470976
0.52069
48.235
0.172741
0.249665
0.292331
0.298946
0.29967
0.301553
0.303207
0.302476
0.298401
0.28837
0.26495
0.20432
0.165703
0.163374
0.168229
0.176982
0.186622
0.195284
0.202523
0.208633
0.214165
0.220135
0.228033
0.238416
0.25103
0.26387
0.276089
0.28362
0.282154
0.276327
0.247444
0.191081
0.177304
0.177574
0.181821
0.187631
0.192715
0.196931
0.200179
0.202426
0.204115
0.205881
0.208496
0.212494
0.217838
0.223821
0.229583
0.234607
0.241843
0.249955
0.249996
0.244021
0.220366
0.186896
0.18108
0.184428
0.188765
0.19218
0.193266
0.19302
0.193061
0.194797
0.198837
0.204277
0.209233
0.212028
0.213287
0.213911
0.214617
0.216593
0.220839
0.228632
0.234901
0.234527
0.229346
0.207011
0.187362
0.185634
0.186543
0.188594
0.190257
0.190489
0.190116
0.189979
0.190848
0.193148
0.196409
0.199624
0.201664
0.202301
0.202246
0.202079
0.202779
0.205381
0.210077
0.211944
0.212585
0.207424
0.191692
0.181019
0.179798
0.180358
0.182741
0.185634
0.187314
0.187962
0.188171
0.188449
0.18916
0.190494
0.192206
0.193836
0.195225
0.196539
0.198123
0.2011
0.204946
0.206079
0.205827
0.202897
0.1917
0.182158
0.181148
0.181541
0.182734
0.184289
0.184868
0.184637
0.184308
0.18421
0.184466
0.18529
0.186943
0.189105
0.190968
0.192061
0.192766
0.19357
0.195483
0.198142
0.198887
0.198793
0.196328
0.186902
0.17588
0.173286
0.172438
0.172563
0.173741
0.174923
0.175236
0.175207
0.175229
0.175442
0.175789
0.176544
0.177779
0.179051
0.1799
0.180558
0.181478
0.183183
0.185908
0.187673
0.188574
0.188271
0.18305
0.17395
0.170485
0.169799
0.169823
0.170766
0.171645
0.171822
0.171509
0.17114
0.17101
0.171343
0.172382
0.174141
0.175613
0.175988
0.17585
0.17562
0.175725
0.176804
0.178764
0.17948
0.179501
0.177626
0.170897
0.163186
0.16127
0.160922
0.161239
0.162033
0.162427
0.162116
0.161469
0.160827
0.160384
0.16024
0.160639
0.161957
0.163989
0.1655
0.166132
0.166474
0.166772
0.167211
0.168263
0.169423
0.16963
0.169235
0.166987
0.160503
0.154586
0.153511
0.153322
0.153803
0.15486
0.155354
0.154923
0.154026
0.153098
0.152412
0.152003
0.151921
0.15234
0.15352
0.15519
0.156386
0.156845
0.156983
0.1571
0.157236
0.157029
0.156431
0.154833
0.15041
0.144205
0.141887
0.141596
0.142002
0.143527
0.145562
0.146512
0.146625
0.146571
0.146223
0.145975
0.146095
0.146616
0.147626
0.149258
0.151533
0.154134
0.156657
0.159056
0.161639
0.164787
0.168371
0.170374
0.17132
0.16904
0.164467
0.162859
0.164145
0.166772
0.170882
0.174037
0.175314
0.175941
0.175964
0.176487
0.177749
0.179698
0.182781
0.187494
0.193893
0.200931
0.207388
0.213548
0.22071
0.229846
0.239242
0.245967
0.247986
0.245355
0.248074
0.255992
0.268324
0.281631
0.294849
0.313742
0.346103
0.397206
0.462795
0.518449
48.2171
0.193524
0.254162
0.294137
0.299467
0.29965
0.300949
0.3025
0.301542
0.29718
0.286574
0.263213
0.202756
0.16562
0.163894
0.168889
0.177515
0.186664
0.194761
0.201702
0.207881
0.213829
0.220432
0.228889
0.239547
0.252072
0.264713
0.276506
0.283464
0.281807
0.275646
0.246103
0.189383
0.175701
0.176446
0.181081
0.187099
0.192065
0.195764
0.198377
0.20019
0.201884
0.204038
0.207218
0.211618
0.217048
0.222444
0.22733
0.232493
0.240572
0.249832
0.250704
0.245504
0.22291
0.188856
0.182223
0.184867
0.188534
0.19173
0.192858
0.192882
0.193427
0.195733
0.200301
0.205711
0.209894
0.212043
0.212814
0.212915
0.213398
0.215407
0.219737
0.227838
0.234713
0.234608
0.229616
0.207685
0.18778
0.185904
0.186825
0.18885
0.190457
0.190633
0.190254
0.190199
0.191225
0.193511
0.196503
0.19923
0.200797
0.20123
0.201159
0.201207
0.202222
0.205174
0.209973
0.211572
0.211487
0.205943
0.189759
0.179509
0.178788
0.179606
0.182209
0.185289
0.187124
0.187951
0.188419
0.18913
0.190422
0.192441
0.194855
0.196992
0.198575
0.199695
0.200812
0.203381
0.206975
0.207896
0.207474
0.203877
0.191842
0.182265
0.181343
0.181422
0.182422
0.183937
0.184638
0.184633
0.184548
0.184661
0.184993
0.185765
0.187253
0.18928
0.191105
0.192382
0.193373
0.194469
0.196498
0.199109
0.199837
0.199622
0.196941
0.187147
0.175874
0.173129
0.172193
0.172228
0.173154
0.174181
0.17432
0.174209
0.174157
0.174184
0.174385
0.175081
0.176326
0.177567
0.178323
0.178852
0.179656
0.181348
0.184178
0.186029
0.187063
0.186799
0.181958
0.173242
0.1697
0.169269
0.169474
0.170647
0.171879
0.172286
0.172184
0.171999
0.172012
0.172396
0.173401
0.175052
0.176431
0.176785
0.176642
0.176401
0.176588
0.177851
0.179779
0.180321
0.180036
0.177485
0.169787
0.161994
0.160122
0.159648
0.159795
0.160463
0.161094
0.161121
0.160763
0.160267
0.159887
0.159793
0.160332
0.161912
0.164092
0.165597
0.16628
0.166785
0.167293
0.167936
0.169042
0.170207
0.170478
0.170121
0.16787
0.161507
0.155701
0.15465
0.154485
0.155069
0.156274
0.156926
0.156579
0.155672
0.154533
0.15354
0.152877
0.152561
0.152749
0.153529
0.154755
0.155763
0.156262
0.156536
0.156795
0.156988
0.15678
0.156233
0.154551
0.149998
0.14398
0.141846
0.141573
0.142
0.14354
0.145688
0.146863
0.147087
0.14716
0.147112
0.147067
0.147239
0.147725
0.148608
0.149987
0.151879
0.15409
0.15636
0.158675
0.161273
0.16446
0.167956
0.169841
0.170655
0.168222
0.163587
0.162072
0.16331
0.165773
0.169609
0.172512
0.173556
0.174002
0.174024
0.174694
0.176002
0.177934
0.180773
0.18482
0.190159
0.196275
0.202405
0.208502
0.215301
0.223256
0.231093
0.236247
0.236896
0.232881
0.231889
0.236332
0.244524
0.25579
0.269085
0.288298
0.321331
0.375574
0.449028
0.510175
48.2724
0.136086
0.258881
0.296885
0.30114
0.3008
0.301233
0.302168
0.300931
0.296389
0.285168
0.260167
0.1991
0.165311
0.164321
0.169556
0.178238
0.187169
0.194995
0.201618
0.207582
0.213528
0.220426
0.229333
0.240535
0.253355
0.26599
0.277127
0.283195
0.281023
0.274072
0.243831
0.187444
0.174242
0.17567
0.18069
0.186816
0.19145
0.194583
0.19668
0.198445
0.200439
0.203211
0.20693
0.211716
0.216908
0.221499
0.225576
0.230836
0.239949
0.250513
0.252502
0.247753
0.225302
0.190041
0.182713
0.184773
0.187838
0.190985
0.192405
0.192946
0.194006
0.196886
0.201415
0.206175
0.209689
0.211328
0.211721
0.211642
0.212143
0.214245
0.218607
0.226745
0.233635
0.23343
0.228573
0.207035
0.187407
0.185477
0.186632
0.188737
0.190431
0.190692
0.190367
0.190494
0.191676
0.193925
0.196629
0.198961
0.200268
0.200653
0.200612
0.200831
0.202092
0.205407
0.210252
0.211661
0.210878
0.204792
0.18803
0.178255
0.177917
0.17911
0.18183
0.18499
0.186977
0.188001
0.188806
0.18998
0.192001
0.194995
0.198359
0.200991
0.202461
0.203132
0.203624
0.205449
0.208278
0.208825
0.208325
0.204067
0.191228
0.181657
0.180694
0.180481
0.18126
0.182817
0.183838
0.184243
0.184502
0.18486
0.185303
0.18613
0.18754
0.189388
0.191117
0.192411
0.193501
0.194766
0.196867
0.199566
0.20039
0.200051
0.197183
0.187273
0.175851
0.172961
0.172018
0.172022
0.172863
0.173795
0.173926
0.173801
0.173661
0.173481
0.173582
0.174277
0.17556
0.176785
0.177455
0.177854
0.178491
0.180065
0.182832
0.184597
0.185599
0.185138
0.180179
0.171641
0.168424
0.168297
0.168704
0.17015
0.171769
0.17248
0.172606
0.172639
0.172789
0.173303
0.174422
0.17608
0.177385
0.177714
0.177584
0.177383
0.177667
0.17903
0.180739
0.180842
0.18012
0.176938
0.168352
0.160756
0.159037
0.158461
0.158508
0.159227
0.160241
0.160621
0.16048
0.160163
0.159892
0.15991
0.160599
0.162378
0.164691
0.166166
0.16682
0.167251
0.167707
0.168311
0.169386
0.170706
0.171122
0.170812
0.168549
0.162272
0.156556
0.155438
0.15521
0.155819
0.157193
0.15806
0.157904
0.15711
0.156046
0.155009
0.154162
0.153645
0.153528
0.153867
0.154506
0.155029
0.15533
0.15559
0.155964
0.156274
0.156156
0.155725
0.154117
0.149604
0.143703
0.141627
0.141356
0.141751
0.143198
0.145399
0.146812
0.147129
0.147223
0.147259
0.14743
0.147756
0.148302
0.149169
0.150428
0.15207
0.15398
0.155967
0.158078
0.160574
0.163658
0.166905
0.168594
0.169252
0.166685
0.162045
0.160647
0.161824
0.164101
0.1677
0.170634
0.171709
0.172245
0.172517
0.173292
0.174606
0.176438
0.178977
0.182477
0.187052
0.192489
0.198217
0.203988
0.210301
0.217198
0.223447
0.227322
0.227535
0.222775
0.219361
0.221745
0.226666
0.235438
0.248072
0.266554
0.298018
0.351864
0.429739
0.495936
48.2711
0.134907
0.261781
0.299574
0.303883
0.303262
0.302657
0.302947
0.30151
0.297161
0.285028
0.256367
0.193387
0.164497
0.164301
0.170059
0.179026
0.18797
0.195499
0.201776
0.207458
0.213268
0.220192
0.229456
0.241305
0.254641
0.267205
0.277463
0.282547
0.27986
0.272296
0.241449
0.185735
0.173277
0.175212
0.180525
0.186568
0.190812
0.193456
0.195421
0.197414
0.199936
0.203303
0.207568
0.212475
0.217078
0.220858
0.224341
0.229797
0.23967
0.251324
0.254565
0.249952
0.227271
0.190755
0.182716
0.184083
0.186821
0.190176
0.192095
0.193159
0.194867
0.197911
0.201899
0.205826
0.208661
0.209933
0.210335
0.210388
0.211104
0.213435
0.217962
0.22605
0.232261
0.23133
0.22621
0.205134
0.186435
0.184545
0.186162
0.188389
0.190199
0.190549
0.190304
0.190672
0.192168
0.194539
0.19708
0.199075
0.200186
0.20056
0.20062
0.20103
0.20253
0.206197
0.210931
0.212089
0.210656
0.203986
0.186759
0.177478
0.177365
0.178978
0.181897
0.185137
0.187241
0.188392
0.189458
0.191035
0.193618
0.197278
0.201218
0.204118
0.205416
0.205777
0.206018
0.207168
0.209052
0.20904
0.208376
0.203482
0.19003
0.180596
0.179367
0.178929
0.179674
0.181351
0.18274
0.183507
0.184082
0.184697
0.185376
0.186338
0.187745
0.189433
0.190971
0.192214
0.193347
0.194722
0.196888
0.19968
0.200608
0.200071
0.197086
0.187164
0.175685
0.172697
0.171873
0.172033
0.172961
0.17392
0.174121
0.173889
0.173585
0.173303
0.173375
0.174074
0.175382
0.176578
0.17717
0.177452
0.177927
0.179338
0.181894
0.183422
0.184247
0.183399
0.178102
0.169708
0.166898
0.167034
0.167693
0.169385
0.171339
0.172396
0.172748
0.172951
0.173252
0.173912
0.175209
0.176965
0.178188
0.178461
0.178365
0.178258
0.1786
0.179793
0.181047
0.180975
0.179986
0.176141
0.166755
0.159691
0.158236
0.157665
0.157806
0.158722
0.159945
0.160557
0.160627
0.160503
0.160408
0.160565
0.161385
0.16327
0.165641
0.167045
0.167506
0.16769
0.167972
0.168491
0.169552
0.170894
0.171389
0.171116
0.168853
0.162745
0.157152
0.155967
0.15566
0.156251
0.157637
0.158585
0.15866
0.158013
0.15711
0.156273
0.155608
0.155072
0.154677
0.154504
0.154536
0.154576
0.154593
0.154686
0.154976
0.155331
0.155287
0.15498
0.153536
0.149185
0.143406
0.14134
0.141093
0.141435
0.142738
0.144859
0.146402
0.146881
0.147011
0.147137
0.147321
0.147754
0.14846
0.149403
0.150598
0.152048
0.153688
0.15544
0.157374
0.159712
0.162553
0.165337
0.166772
0.167174
0.16438
0.159727
0.158412
0.159524
0.161589
0.16493
0.16809
0.169642
0.170527
0.171218
0.172187
0.173542
0.175277
0.177505
0.18047
0.184524
0.189687
0.195267
0.200707
0.206299
0.212163
0.21747
0.220503
0.220687
0.215882
0.211152
0.212209
0.215287
0.22205
0.233417
0.250289
0.278697
0.329522
0.407428
0.474872
48.2378
0.165529
0.26031
0.301256
0.307605
0.307222
0.305441
0.304803
0.303207
0.299287
0.286115
0.252219
0.187034
0.163345
0.163882
0.170322
0.179874
0.189179
0.196679
0.202525
0.207671
0.213116
0.220026
0.229651
0.242142
0.255928
0.268175
0.277183
0.28149
0.278503
0.270773
0.239531
0.184585
0.172789
0.175035
0.180488
0.186334
0.190187
0.192587
0.194629
0.197018
0.200096
0.204067
0.208784
0.213547
0.217604
0.220833
0.224033
0.229555
0.239766
0.251916
0.255725
0.251281
0.228452
0.190961
0.182277
0.182916
0.185771
0.189597
0.192106
0.19377
0.195748
0.198462
0.201722
0.20474
0.206996
0.208345
0.209048
0.209498
0.210589
0.213167
0.217894
0.225751
0.230907
0.229033
0.223451
0.202554
0.185121
0.183505
0.185708
0.187961
0.189745
0.19018
0.190108
0.190788
0.192662
0.195297
0.197862
0.199631
0.2006
0.200978
0.201154
0.201764
0.203532
0.207458
0.211994
0.212862
0.210846
0.203443
0.185856
0.177227
0.177351
0.179453
0.182697
0.186015
0.187981
0.189009
0.190112
0.191933
0.194896
0.198839
0.202853
0.205686
0.20687
0.207095
0.207303
0.208015
0.209149
0.208852
0.207999
0.202443
0.188709
0.179506
0.178095
0.177521
0.17819
0.179922
0.181489
0.182501
0.183344
0.184265
0.185222
0.186363
0.187801
0.189438
0.190812
0.191853
0.192886
0.194315
0.196553
0.199397
0.200409
0.199676
0.196631
0.186765
0.175304
0.17237
0.171812
0.172219
0.173528
0.174615
0.174739
0.174382
0.173946
0.173664
0.173749
0.174457
0.175761
0.176866
0.177316
0.177461
0.177797
0.179021
0.181298
0.182547
0.183082
0.181767
0.176024
0.16774
0.165362
0.165627
0.166529
0.168512
0.170782
0.172114
0.172649
0.172939
0.173362
0.174194
0.175699
0.177578
0.178772
0.17899
0.178906
0.178854
0.179162
0.180059
0.180889
0.18056
0.179259
0.17488
0.165402
0.15918
0.158
0.157512
0.157748
0.158754
0.160115
0.160881
0.161103
0.161177
0.16128
0.161642
0.162555
0.164353
0.166618
0.167869
0.167998
0.16793
0.168034
0.168471
0.169498
0.170799
0.171279
0.171023
0.168755
0.162824
0.157407
0.156196
0.155825
0.156411
0.157793
0.158697
0.158828
0.158359
0.157666
0.157077
0.156659
0.156361
0.15598
0.155448
0.154867
0.154404
0.154186
0.154157
0.154363
0.154681
0.154601
0.154274
0.152879
0.148661
0.143048
0.141079
0.140909
0.14124
0.14245
0.144435
0.145853
0.146303
0.146524
0.146805
0.147213
0.147774
0.148509
0.149447
0.15058
0.151865
0.15326
0.154795
0.15656
0.158741
0.161293
0.163416
0.164598
0.164593
0.161447
0.156772
0.155562
0.156591
0.15847
0.161618
0.165078
0.167277
0.168529
0.169657
0.170979
0.172543
0.174365
0.176513
0.179234
0.182954
0.187903
0.193478
0.19873
0.20366
0.208639
0.213265
0.215953
0.216445
0.212251
0.206975
0.207115
0.209166
0.214677
0.224751
0.239674
0.264499
0.31069
0.385258
0.45065
48.1627
0.24121
0.257412
0.302273
0.311587
0.311445
0.30859
0.307165
0.305467
0.30221
0.287873
0.248067
0.181413
0.162089
0.163193
0.170327
0.180501
0.190212
0.197586
0.203078
0.207856
0.213106
0.220174
0.230237
0.243263
0.257171
0.268798
0.27627
0.280139
0.277062
0.26954
0.23837
0.18413
0.172763
0.175164
0.180531
0.186101
0.189643
0.192004
0.194268
0.197053
0.200684
0.205193
0.210147
0.214785
0.218511
0.221482
0.224648
0.229963
0.239848
0.251828
0.25564
0.251594
0.228775
0.19057
0.181275
0.181725
0.184992
0.189379
0.192508
0.194532
0.196337
0.198463
0.200904
0.2032
0.205221
0.20686
0.208066
0.209088
0.210635
0.213515
0.218363
0.225594
0.229758
0.227107
0.220935
0.199971
0.183826
0.182568
0.185299
0.187479
0.189121
0.189572
0.189688
0.19074
0.193077
0.196104
0.198793
0.200476
0.201357
0.201718
0.202011
0.20281
0.204798
0.208924
0.213401
0.213979
0.211495
0.203292
0.185302
0.177456
0.177929
0.180629
0.184086
0.187187
0.188736
0.189477
0.190515
0.19251
0.195705
0.199613
0.203379
0.205699
0.206456
0.206512
0.206733
0.207426
0.208399
0.207876
0.206852
0.201226
0.187993
0.178594
0.176909
0.176175
0.176814
0.178575
0.18032
0.181504
0.182543
0.183687
0.184857
0.186188
0.187754
0.189342
0.190562
0.191392
0.19224
0.193607
0.195883
0.198762
0.199835
0.198968
0.195914
0.18619
0.174835
0.172085
0.171881
0.172457
0.174044
0.175448
0.175647
0.175317
0.174885
0.174617
0.174676
0.175348
0.176565
0.177451
0.177673
0.177684
0.177904
0.178949
0.180918
0.181942
0.182166
0.180459
0.174286
0.166133
0.16404
0.164361
0.165433
0.167672
0.170254
0.171783
0.172408
0.172777
0.173289
0.174283
0.175956
0.177909
0.179044
0.179226
0.179137
0.179075
0.179315
0.17992
0.180195
0.179557
0.177864
0.173336
0.164651
0.159222
0.158182
0.157785
0.158129
0.159306
0.160775
0.161554
0.161851
0.162065
0.162329
0.162785
0.163649
0.165232
0.167191
0.168178
0.168163
0.167932
0.167857
0.168195
0.169138
0.170379
0.170825
0.170588
0.168404
0.16262
0.157333
0.15613
0.155718
0.156271
0.157636
0.158529
0.158624
0.158336
0.157879
0.157457
0.157101
0.156888
0.156808
0.15641
0.1556
0.15478
0.154294
0.154189
0.154321
0.154541
0.154315
0.153837
0.152275
0.148032
0.142655
0.140891
0.140859
0.141199
0.142361
0.144188
0.145396
0.145767
0.145965
0.146272
0.146762
0.147441
0.148347
0.149371
0.150441
0.15155
0.152731
0.154059
0.155641
0.157669
0.159913
0.161378
0.162249
0.161814
0.158162
0.153433
0.152368
0.153341
0.155121
0.158211
0.16199
0.164769
0.166326
0.167792
0.169428
0.17131
0.173425
0.175827