/*--------------------------------*- C++ -*----------------------------------*\
| =========                 |                                                 |
| \\      /  F ield         | OpenFOAM: The Open Source CFD Toolbox           |
|  \\    /   O peration     | Version:  2306                                  |
|   \\  /    A nd           | Website:  www.openfoam.com                      |
|    \\/     M anipulation  |                                                 |
\*---------------------------------------------------------------------------*/
FoamFile
{
    version     2.0;
    format      ascii;
    arch        "LSB;label=32;scalar=64";
    class       volScalarField;
    location    "0.16";
    object      T;
}
// * * * * * * * * * * * * * * * * * * * * * * * * * * * * * * * * * * * * * //

dimensions      [0 0 0 1 0 0 0];

internalField   nonuniform List<scalar> 
6000
(
3206.27
2312.3
1941.95
2432.69
2553.22
2587.23
2602
2601.58
2592.01
2597.02
2605.89
2537.78
2280.1
2088.58
2079.29
2117.61
2180.73
2249.42
2308.93
2350.19
2380.41
2408.43
2439.92
2484.07
2551.73
2638.99
2729.98
2811.09
2856.24
2858.03
2845.1
2743.79
2488.74
2419.03
2459.85
2498.01
2527.65
2547.67
2571.12
2605.59
2647.95
2686.99
2713.48
2730.89
2746.21
2768.62
2807.35
2860.36
2917.21
2980.36
3027.96
3022.77
2989.61
2831.49
2630.22
2611.94
2642.09
2688.17
2727.28
2751.48
2763.03
2770.43
2778.73
2791.03
2810.66
2839.63
2875.55
2912.49
2944.12
2967.77
2986.1
3009.16
3043.62
3065.65
3063.89
3036.72
2914.59
2825.2
2827.39
2851.09
2877.34
2900.1
2913.77
2922.11
2930.39
2940.91
2955.56
2976.46
3004.69
3035.65
3062.84
3084.8
3097.62
3105.61
3120.27
3148.5
3164.13
3177.1
3154.51
3062.9
2994.81
2982.72
2980.83
2990.79
3006.55
3021.72
3035.69
3049.67
3061.66
3073.66
3087.74
3101.62
3111.33
3117.67
3123.56
3131.51
3147.11
3172.68
3189.3
3204.01
3198.87
3137.22
3069.29
3060.9
3060.42
3071.07
3087.98
3102.3
3112.06
3121.92
3136.46
3157.3
3182.29
3204.58
3218.47
3224.42
3225.05
3224.78
3226
3235.21
3254.92
3275.38
3287.15
3287.8
3251.44
3189.31
3173.61
3180.67
3194.41
3214.97
3236.06
3250.75
3261.17
3271.82
3286.58
3308.49
3337.57
3367.87
3388.7
3401.03
3408.07
3410.66
3411.85
3415.4
3413.85
3412.42
3395.76
3339.54
3285.1
3276.62
3277.89
3284.9
3298.63
3313.75
3323.72
3329.55
3334.95
3342.32
3352.76
3366.83
3386.33
3408.05
3424.85
3437.72
3450.97
3466.74
3488.27
3514.48
3531.85
3543.33
3540.6
3503.82
3460.78
3459.7
3471.71
3491.04
3518.55
3542.04
3557.34
3569.53
3580.52
3591.7
3604.9
3620.1
3637.39
3656.07
3670.31
3677.42
3679.98
3679.57
3678.52
3680.35
3690.62
3700.51
3708.94
3703.87
3667.35
3626.91
3625.38
3639.24
3657.83
3682.84
3708.57
3725.26
3737.78
3750.17
3763.36
3778.17
3796.17
3818.98
3847.8
3878.24
3903.32
3923.98
3944.37
3966.99
3994.64
4024.23
4042.56
4053.56
4038.21
3972.45
3930.28
3932.56
3942.28
3957.41
3971.87
3974.42
3971.27
3962.7
3950.4
3936.02
3920.17
3904.66
3890.47
3876.15
3855.83
3822.19
3776.26
3725.97
3676.88
3634.62
3602.83
3567.43
3523.5
3462.03
3385.48
3329.31
3304.85
3290.03
3287.93
3280.26
3256.74
3228.36
3199.48
3169.32
3138.95
3108.04
3076.28
3040.02
2986.78
2908.9
2815.7
2711.66
2598.54
2479.5
2349.12
2211.73
2065.68
1938.26
1838.54
1758.42
1687.22
1607.92
1527.65
1451.9
1378.38
1312.03
1267.11
1256.1
3206.33
2334.46
1947.67
2436.44
2554.14
2585.99
2599.14
2598.52
2590.54
2595.25
2600.79
2532.43
2278.34
2085.34
2076.51
2114.75
2177.81
2246.88
2306.62
2348.85
2380.51
2409.83
2442.7
2488.01
2555.23
2640.73
2728.83
2808.14
2854.24
2856.75
2847.75
2750.05
2493.51
2419.44
2455.52
2492
2523.03
2545.58
2571.16
2606.41
2646.82
2681.76
2706.11
2723.27
2739.83
2765.46
2806.52
2858.97
2913.57
2973.02
3018.33
3014.29
2983.47
2832.07
2632.65
2614.11
2645.39
2691.94
2730.88
2753.03
2763.38
2770.31
2779.11
2792.89
2814.73
2845.86
2883.22
2919.97
2949.42
2971.3
2990.02
3015.48
3051.7
3073.5
3071.65
3044.88
2922.81
2830.59
2831.96
2854.3
2879.13
2900.5
2913.16
2920.85
2928.63
2939.22
2954.71
2976.89
3005.49
3035.7
3060.85
3077.43
3088.27
3096.46
3112.77
3142.76
3159.46
3172.98
3150.3
3059.63
2992.26
2981.52
2981.31
2993.08
3010
3025.29
3038.53
3051.29
3062.21
3073.17
3086.17
3099.66
3110
3117.72
3125.34
3134.92
3152.35
3179.03
3195.24
3208.67
3202.84
3141.44
3073.86
3065.51
3066.72
3078.29
3095.55
3109.51
3118.32
3126.7
3139.12
3157.64
3180.92
3203.24
3218.78
3225.81
3227.85
3229.1
3231.83
3241.85
3261.82
3281.23
3292.47
3291.83
3253.25
3189.66
3174.19
3180.26
3193.19
3212.77
3232.83
3246.57
3256.4
3266.88
3281.39
3301.93
3328.09
3355.14
3374.52
3385.67
3392.26
3396.74
3402.42
3409.18
3411.22
3414.56
3404.78
3352.65
3294.02
3283.88
3284.51
3290.42
3303.07
3317.23
3326.64
3331.97
3336.88
3343.92
3354.64
3369.22
3389.27
3411.13
3427.55
3439.83
3452.24
3467.32
3488.31
3514.54
3532.35
3544.08
3541.91
3506.37
3461.96
3459.43
3470.6
3489.13
3515.47
3537.9
3552.51
3563.45
3573.51
3583.89
3595.62
3609.79
3626.05
3645.21
3661.64
3670.97
3676.01
3679.7
3683.22
3691.25
3705.7
3715.91
3723.19
3714.56
3673.49
3632.28
3630.68
3643.98
3661.84
3686.12
3711.26
3727.37
3739.67
3752.11
3765.53
3780.66
3798.97
3822.12
3851.64
3883.68
3910.16
3930.81
3950.51
3972.38
3998.98
4026.68
4043.73
4054.93
4040.05
3977.84
3940.44
3943.86
3953.67
3967.72
3979.39
3980.42
3976.45
3967.66
3955.76
3942.18
3927.06
3911.44
3895.81
3879.5
3858.28
3825.49
3780.46
3730.33
3681.25
3638.79
3606.44
3569.79
3525
3462.02
3385.36
3330.56
3306.54
3292.07
3290.24
3282.46
3258.42
3228.92
3197.69
3165.84
3133.33
3101.17
3069.28
3034.42
2985.47
2910.56
2818.65
2716.44
2606.18
2489.24
2359.75
2223.18
2078.09
1950.97
1851.46
1771.14
1699.58
1619.07
1536.9
1458.24
1381.1
1310.14
1257.25
1242.24
3206.26
2328.46
1960.97
2444.94
2557.92
2586.97
2598.63
2597.95
2592.18
2594.12
2592.3
2523.9
2276.3
2082.18
2073.72
2111.53
2173.92
2242.52
2302.92
2347.87
2382.2
2413.33
2447.92
2494.7
2560.64
2641.99
2725.83
2804.95
2854.2
2858.01
2853.69
2757.75
2496.07
2419.1
2446.53
2482.52
2517.23
2545.01
2574.2
2609.01
2645.03
2674.89
2697.2
2715.62
2735.77
2765.38
2808.66
2860.27
2909.68
2962.65
3004.27
3000.56
2973.66
2834.65
2639.46
2619.68
2651.65
2697.6
2734.37
2753.13
2762.38
2769.2
2779.29
2796.35
2822.32
2855.84
2893.37
2926.89
2951.16
2970.99
2990.75
3018.72
3059.17
3084.15
3083.36
3058.57
2935.75
2838.14
2838.08
2858.08
2881.17
2900.92
2912.07
2918.64
2925.85
2936.84
2953.93
2977.75
3006.19
3033.95
3054.98
3066.04
3074.05
3083.44
3102.67
3135.76
3155.1
3168.71
3145.06
3055.06
2987.85
2978.57
2981.27
2996.5
3015.73
3031.14
3042.87
3053.49
3063.2
3073.36
3085.39
3098.31
3109.23
3118.07
3126.64
3137.41
3157.33
3185.98
3201.34
3212.9
3206.75
3145.58
3080.37
3073.46
3077.41
3089.99
3107.54
3120.67
3127.07
3133.21
3143.05
3157.83
3177.09
3197.82
3215.48
3226.1
3231
3233.82
3238.14
3249.66
3271.04
3289.28
3300.25
3298.06
3254.82
3188.62
3174.21
3179.19
3191.27
3210
3229.39
3242.34
3251.98
3263.13
3277.36
3294.58
3314.53
3336
3353.17
3364.6
3372.14
3378.49
3388.79
3402.28
3410.81
3418.01
3413.85
3368.07
3305.79
3293.26
3293.97
3299.72
3311.13
3323.37
3331.87
3336.83
3341.32
3348.05
3358.98
3373.86
3394.33
3416.69
3432.44
3443.8
3455.45
3469.65
3489.78
3516.15
3533.94
3545.44
3543.93
3509.96
3463.15
3459.24
3469.93
3487.87
3512.76
3533.83
3547.04
3556.15
3564.05
3571.99
3581.47
3593.78
3609.23
3629.15
3648.73
3661.65
3670.89
3679.28
3688.48
3702.36
3719.76
3731.67
3740.4
3730.82
3683.41
3639.8
3638.38
3650.68
3667.38
3690.65
3714.42
3729.65
3741.4
3753.41
3766.63
3781.82
3800.14
3823.23
3853.02
3886.26
3914.84
3937.03
3957.44
3979.31
4004.05
4028.47
4043.75
4054.04
4037.35
3978.01
3947.53
3953.45
3966.19
3983.73
3994.07
3993.86
3987.73
3977.04
3965.31
3952.78
3938.44
3922.71
3905.51
3886.41
3863.59
3831.5
3787.93
3738.65
3690.03
3647.8
3614.93
3576.04
3529.65
3464.32
3386.55
3332.56
3309.2
3295.75
3295.49
3288.24
3263.73
3233.6
3199.54
3165.79
3130.15
3094.81
3060.99
3028.18
2986.01
2919.12
2830.89
2732.08
2625.8
2513.22
2387.6
2254.76
2112.63
1987.18
1890.39
1812.39
1741.76
1660.73
1574.86
1488.1
1400.14
1313.67
1238.87
1209.98
3206.04
2212.79
1981.33
2457.52
2561.9
2586.71
2596.76
2595.94
2591.46
2590.63
2582.72
2516.8
2275.72
2078.32
2071.45
2109.54
2170.76
2238.13
2298.53
2345.36
2381.88
2415.56
2453.33
2502.3
2566.7
2643.57
2723.4
2802.7
2855.15
2860.24
2860.16
2764.15
2496.66
2418.27
2437.6
2472.25
2510.13
2543.41
2576.01
2609.41
2640.27
2665.36
2686.38
2706.16
2730.32
2764.95
2808.93
2856.6
2899.32
2946.94
2988.28
2988.14
2967.07
2841.95
2651.41
2628.71
2660.84
2703.99
2737.86
2754.52
2762.02
2768.43
2780.44
2802.22
2833.51
2869.97
2905.49
2932.34
2951.67
2968.96
2988.96
3018.65
3062.81
3094.45
3095.89
3075.31
2953.55
2847.86
2845.71
2862.58
2883.43
2901.27
2910.37
2915.35
2921.66
2933.06
2951.78
2976.98
3005.05
3029.72
3046.18
3054.55
3059.62
3068.17
3088.53
3123.64
3146.13
3161.44
3137.65
3048.43
2981.69
2974.37
2980.19
2998.82
3020.93
3036.54
3047.18
3055.83
3064.32
3073.91
3085.67
3098.69
3110.65
3121.06
3131.6
3145.11
3168.3
3198.69
3213.2
3222.05
3214.94
3153.16
3089.17
3083.22
3089.22
3102.25
3119.39
3131.34
3136.24
3140.2
3147.03
3158.43
3173.27
3191.78
3211.46
3225.5
3233.36
3238.67
3245.91
3260.22
3283.65
3299.98
3310.1
3305.56
3256.43
3187.54
3174.55
3178.03
3188.46
3205.93
3224.43
3236.08
3244.9
3255.17
3267.33
3280.4
3295.35
3312.88
3329.78
3342.93
3353.21
3363.57
3378.76
3398.96
3412.69
3422.7
3421.97
3381.97
3318.37
3303.27
3304.34
3311
3322.48
3333.2
3340.18
3344.48
3348.77
3355.57
3366.93
3382.12
3402.92
3425.4
3440.1
3450.24
3460.78
3473.87
3493.24
3519.7
3537.31
3548.64
3547.4
3513.34
3463.65
3458.02
3467.86
3485.03
3507.91
3526.29
3536.04
3542.61
3548.2
3554.83
3563.92
3576.71
3594.32
3618.28
3641.68
3657.03
3669.37
3681.47
3694.53
3711.41
3730.52
3743.91
3753.57
3746.06
3697.56
3651.66
3650.13
3661.43
3677.33
3699.27
3720.24
3733.76
3744.54
3755.65
3767.99
3782.5
3800.52
3823.29
3853.1
3887.15
3916.94
3940.41
3961.87
3984.06
4006.89
4028.32
4041.9
4050.54
4031.1
3974.24
3950.26
3958.24
3974.65
3998.23
4015.11
4016.91
4010.58
3994.81
3978.82
3965.35
3950.8
3934.19
3915.71
3895.71
3872.45
3841.14
3799.44
3751.79
3704.41
3662.9
3629.59
3588.69
3540.37
3472.51
3393.33
3339.88
3316.65
3303.51
3303.65
3296.52
3271.59
3240.43
3203.79
3167.05
3129.51
3091.9
3056.75
3025.49
2991.45
2936.2
2854.54
2761.2
2661.47
2557.82
2441.54
2317.04
2182.04
2058.75
1967.28
1894.31
1829.3
1748.76
1654.94
1552.11
1442.26
1326.57
1219.66
1169.68
3205.71
1913.44
2007.06
2471.24
2564.12
2585.29
2593.06
2591.85
2588.21
2585.85
2575.46
2513.1
2276.75
2075.71
2070.27
2108.65
2168.72
2234.09
2293.43
2341.9
2381.66
2418.49
2459.12
2509.9
2572.71
2646.08
2723.09
2802.12
2856.09
2862.41
2865.21
2768.39
2495.97
2416.15
2429.63
2463.5
2503.69
2540.62
2575
2606.5
2632.88
2654.98
2674.99
2697.17
2725.74
2763.31
2805.46
2848.22
2886.67
2933.06
2977.85
2982.24
2966.09
2853.56
2667.49
2640.68
2671.27
2709.91
2740.46
2756.15
2762.4
2768.78
2783.61
2810.7
2847.05
2885.05
2915.43
2935.47
2950.42
2964.53
2983.8
3014.49
3062.9
3100.34
3104.21
3087.02
2968.33
2855.1
2850.81
2864.87
2884.25
2901.05
2908.72
2911.82
2916.98
2928.57
2948.53
2974.77
3002.22
3024.01
3036.38
3043.59
3048.12
3056.85
3076.74
3112.26
3135.83
3151.85
3129.06
3039.99
2973.84
2969.01
2977.59
2998.75
3022.54
3038.61
3048.88
3056.92
3065.13
3075.28
3088.3
3102.98
3116.9
3129.36
3142.03
3157.78
3182.88
3213.9
3227.56
3234.19
3225.22
3160.93
3098.22
3093.54
3100.91
3113.79
3130.29
3139.87
3142.79
3145.32
3150.05
3158.56
3170.34
3187.55
3207.06
3223.7
3234.18
3242.49
3252.8
3270.92
3295.99
3310.42
3319.19
3312.58
3258.02
3186.57
3174.22
3175.88
3184.66
3201.09
3218.14
3228.46
3236
3244.9
3254.92
3264.9
3276.91
3292.68
3309.72
3323.76
3335.36
3347.9
3366.3
3392.35
3411.85
3424.53
3427.05
3393.01
3329.17
3311.46
3313.5
3321.27
3333.27
3344.32
3351.35
3355.32
3359.6
3366.77
3378.49
3393.77
3414.67
3436.22
3449.61
3458.82
3468.32
3480.28
3498.78
3525.1
3542.83
3554.05
3552.17
3514.92
3462.01
3455.05
3463.7
3479.96
3500.51
3515.94
3523.27
3528.12
3532.91
3539.41
3548.98
3563.23
3583.46
3610.32
3635.01
3652.08
3666.66
3681
3697.15
3717.91
3739.78
3753.12
3761.65
3754.98
3707.85
3661.88
3661.26
3672.73
3689.62
3711.57
3729.86
3740.53
3749.04
3757.91
3768.09
3780.85
3797.5
3819.59
3849.7
3885.18
3916.32
3940.49
3962.41
3984.81
4006.79
4025.61
4038.52
4044.65
4021.95
3967.54
3950.06
3959.1
3976.87
4002.35
4028.21
4036.38
4034.26
4022.01
4002.63
3985.37
3968.99
3950.26
3929.51
3907.86
3884.02
3853.92
3814.96
3770.08
3725.06
3685.24
3651.67
3608.86
3558.99
3488.92
3408.4
3355.6
3332.27
3318.7
3317.77
3309.03
3282.66
3250.15
3211.8
3172.59
3134.49
3096.92
3061.84
3031.1
3001.47
2958.15
2889.43
2805.36
2715.84
2624.95
2523.85
2412.57
2290.28
2169.45
2085.03
2018.66
1961.58
1885.68
1784.06
1660.5
1518.34
1360.4
1212.21
1139.64
3205.34
1777.99
2032.96
2481.99
2564.31
2582.61
2588.18
2586.87
2584
2581.54
2569.93
2509.58
2275.16
2073.92
2070.42
2109.55
2168.47
2231.32
2288.33
2336.75
2379.01
2419.28
2462.98
2515.41
2577.51
2649.26
2725.35
2803.45
2856.6
2863.61
2867.14
2768.85
2492.27
2411.11
2422.64
2457.34
2499.2
2537.46
2571.15
2599.69
2623.05
2643.5
2664.27
2689.25
2721
2758.47
2798.1
2837.47
2875.4
2925.45
2975.3
2983.7
2972.28
2869.65
2685.99
2653.57
2681.19
2715.13
2743.02
2757.77
2763.82
2771.54
2789.98
2821.46
2860.73
2896.94
2920.96
2936.08
2947.16
2958.53
2976.91
3007.36
3059.34
3101.98
3107.7
3091.5
2976.17
2858.45
2852.04
2864.15
2882.82
2899.33
2906.49
2908.87
2913.73
2925.88
2946.62
2972.51
2997.41
3015.19
3025.65
3032.14
3037.73
3048.42
3069.45
3105.6
3127.75
3141.06
3118.84
3028.64
2963.58
2962.15
2973.55
2996.51
3021.54
3038.81
3049.62
3057.79
3066.6
3078.26
3093.7
3111.22
3127.82
3142.58
3156.91
3173.39
3198.53
3227.83
3239.33
3244
3232.34
3164.54
3102.2
3098.79
3106.49
3119.06
3134.11
3142.13
3144.49
3146.93
3151.76
3159.07
3169.32
3185.09
3204.9
3223.28
3236.63
3247.69
3260.11
3280.43
3305.94
3318.82
3326.24
3318.1
3259.8
3186.24
3173.74
3173.81
3181.46
3196.91
3212.05
3221.16
3227.96
3235.72
3244.38
3252.52
3263.43
3278.93
3295.67
3309.18
3320.7
3334.07
3354.26
3384.08
3407.69
3421.98
3427.2
3397.55
3334.82
3314.6
3317.57
3326.85
3341.73
3354.46
3362.56
3367.91
3373.49
3381.33
3392.84
3408.15
3429.1
3449.53
3462.31
3471.03
3479.44
3490.2
3508.01
3533.85
3550.97
3561.36
3557.42
3513.51
3457.49
3449.91
3456.92
3471.57
3489.61
3503.81
3511.71
3517.37
3522.69
3529.13
3538.72
3553.95
3577.03
3606.55
3631.7
3649.37
3665.19
3681.54
3699.87
3722.71
3744.93
3757.9
3766.57
3761.11
3715.36
3669.63
3669.74
3681.63
3700.23
3723.76
3742.05
3751.45
3757.76
3763.25
3770.72
3781.26
3795.96
3816.55
3845
3879.53
3910.81
3935.62
3957.84
3980.28
4002.13
4020.02
4033.34
4037.54
4012.03
3960.04
3947.31
3957.29
3975.69
4001.65
4030.67
4044.58
4045.74
4040.26
4024.67
4006.73
3989.52
3970.24
3948.51
3925.15
3900.16
3871.01
3834.98
3793.72
3752.25
3715.52
3683.28
3639.74
3588.59
3515.95
3433.52
3380.9
3356.83
3341.83
3338.88
3328.03
3299.92
3265.54
3225.32
3186.14
3148.81
3112.58
3078.9
3048.87
3020.25
2983.63
2929.89
2861.26
2786.25
2710.5
2628.01
2533.7
2426.06
2312.38
2233.25
2174.53
2124.37
2056.95
1951.92
1808.87
1629.83
1421.04
1224.86
1128.45
3204.95
1914.09
2056.82
2489.92
2564.14
2579.94
2583.29
2581.86
2579.32
2576.97
2563.49
2503.04
2268.36
2073.31
2073.3
2113.47
2171.46
2231.91
2286.3
2333.48
2376.3
2418.57
2464.67
2518.93
2581.9
2653.88
2730.32
2806.77
2857.07
2863.74
2866.17
2764.26
2484.53
2403.5
2417.3
2454.04
2497.09
2534.77
2565.8
2591.16
2612.39
2633.09
2656.28
2684.62
2718.29
2756.04
2792.98
2828.5
2867.63
2922.3
2978.81
2992.53
2984.43
2888.24
2702.92
2665.64
2688.87
2718.03
2743.89
2758.37
2766.01
2776.58
2797.99
2832.36
2871.21
2902.6
2922.23
2934.24
2941.95
2951.37
2969.26
2999.24
3052.19
3098.57
3105.56
3089.73
2977.26
2858.59
2851.17
2862.92
2880.82
2896.61
2903.53
2906.06
2911.76
2925.35
2945.98
2969.98
2991.79
3007.02
3016.43
3022.85
3029.86
3042.2
3065.74
3103.11
3123.17
3132.11
3108.97
3015.92
2952.77
2954.65
2968.71
2992.61
3018.66
3036.88
3048.87
3058.8
3070.53
3086.07
3105.97
3127.89
3147.5
3163.33
3176.29
3189.33
3210.74
3237.32
3247.29
3251.51
3236.53
3163.08
3100.44
3097.52
3103.14
3114.57
3129.25
3138.33
3142.27
3146.3
3152.26
3159.65
3169.76
3185.2
3204.88
3223.27
3237.88
3250.8
3265.44
3287.27
3312.84
3324.9
3330.85
3321.53
3261.17
3186.42
3173.38
3172.52
3179.33
3193.51
3207.93
3216.19
3222.78
3230.08
3237.17
3244.32
3255.14
3271.12
3287.85
3300.73
3311.38
3324.24
3344.97
3376.51
3401.57
3417.05
3421.84
3394.27
3334.48
3313.02
3317.07
3328.05
3345.48
3362.46
3372.67
3379.78
3387.38
3396.99
3408.97
3424.43
3445.02
3464.74
3477.1
3485.36
3492.92
3503.32
3521.36
3546.01
3560.9
3569.3
3560.75
3508.28
3451.32
3444.19
3449.41
3461.87
3478.28
3494.19
3504.88
3511.9
3517.76
3524.17
3533.75
3549.9
3575.31
3606.33
3631.22
3648.8
3665.34
3683.06
3702.64
3725.53
3747.63
3760.36
3768.07
3762.26
3718.25
3674.46
3675.17
3687.1
3706.53
3731.52
3751.8
3762.46
3769.01
3772.84
3777.38
3784.98
3797.13
3815.28
3839.41
3868.79
3897.26
3921.65
3944.51
3968.06
3990.99
4009.71
4024.01
4027.52
4000.77
3951.16
3941.04
3951.61
3970.35
3996.88
4027.65
4044.68
4047.8
4045.31
4035.7
4021.77
4006.5
3988.94
3968.88
3946.55
3921.74
3893.09
3859.1
3821.44
3784.12
3751.16
3720.88
3678.12
3627.06
3553.69
3470.53
3418.3
3393.41
3376.67
3371.25
3357.84
3327.13
3290.43
3249.35
3211.07
3174.54
3139.57
3106.89
3077.02
3048.62
3016.42
2974.09
2921.32
2863.15
2803.44
2738.31
2661.07
2569.02
2466.94
2391.51
2340.64
2293.79
2234.62
2135.37
1981.83
1770.28
1509.42
1259.21
1133.1
3204.4
1157.35
2084.38
2501.66
2566.26
2578.68
2579.55
2577.39
2575.87
2574.67
2560.03
2491.76
2250.63
2071.64
2076.11
2117.41
2175.36
2234.53
2287.43
2333.16
2375.15
2417.6
2465
2520.95
2585.97
2659.48
2736.73
2810.97
2857.03
2861.82
2861.97
2756
2475.45
2396.64
2414.01
2452.78
2496.33
2532.12
2560.07
2582.6
2603.56
2626
2652.73
2684.1
2719.82
2756.47
2790.11
2822.21
2861.75
2920.91
2986.06
3008.11
2999.08
2904.39
2714.4
2673.01
2692.18
2717.5
2742.92
2758.69
2768.97
2782.51
2807.06
2840.97
2875.69
2902.8
2919.43
2929.09
2934.7
2943.74
2961.9
2991.48
3044.01
3089.58
3095.67
3081.06
2971.1
2854.02
2846.3
2859.43
2877.38
2893.21
2900.41
2903.03
2909.89
2924.9
2945.6
2968.14
2987.65
3001.1
3010.01
3016.63
3024.8
3038.75
3064.74
3102.61
3120.96
3125.63
3100.57
3003.94
2943.54
2947.51
2963.75
2988.36
3015.52
3035.11
3048.3
3060.27
3074.99
3095.25
3121.28
3148.9
3171.24
3185.96
3195.74
3204.38
3220.63
3242.13
3250.41
3254.46
3235.03
3155.62
3093.16
3089.66
3092.41
3102.35
3117.31
3128.91
3136.43
3143.64
3151.47
3159.6
3170.22
3185.4
3204.28
3222.38
3237.32
3251.05
3267.01
3289.75
3316.5
3328.89
3333.3
3322.88
3262.1
3186.83
3172.87
3171.78
3178.43
3192.15
3206.04
3214.42
3221.02
3227.71
3233.5
3240.59
3252.07
3268.76
3285.57
3297.9
3307.74
3319.69
3340
3371.47
3396.39
3412.12
3416.12
3388.53
3329.72
3309.93
3315.72
3327.27
3345.73
3366.72
3380.73
3389.99
3399.42
3410.32
3423.27
3440.17
3461.38
3480.5
3492.23
3499.94
3507.04
3517.49
3535.87
3558.28
3568.89
3574.27
3561.07
3500.27
3444.69
3438.82
3442.67
3453.58
3469.99
3488.48
3501.73
3510.14
3516.91
3524.05
3534.31
3551.27
3578.2
3610.31
3634.88
3651.93
3667.72
3684.81
3703.75
3726.05
3749.13
3761.98
3768.78
3762.03
3718.66
3676.44
3676.63
3687.56
3707.14
3733.59
3756.11
3769.22
3777.14
3782.16
3786.41
3792.14
3801.25
3815.58
3835.27
3858.51
3881.53
3903.11
3925.14
3949.55
3974.04
3994.03
4009.04
4012.91
3986.71
3938.54
3929.29
3940.3
3959.18
3985.49
4018.06
4039.03
4043.9
4042.91
4037.49
4029.09
4017.64
4003.58
3987.2
3968.14
3945.95
3919.66
3888.51
3854.33
3821.01
3791.76
3763.45
3722.04
3672.08
3598.8
3515.6
3464.17
3438.51
3419.98
3412.33
3398.38
3366.45
3328.43
3287.53
3248.78
3211.78
3176.25
3142.85
3112.26
3083.91
3054.97
3020.61
2979.06
2933.93
2887.15
2834.71
2771.38
2695.14
2604.59
2531.99
2487.83
2443.14
2390.52
2303.24
2151.96
1921.27
1617.76
1315.28
1156.48
3204.15
1152.74
2102.49
2510.4
2570.95
2578.86
2577.53
2575.29
2576.64
2578.54
2561.64
2478.03
2222.46
2067.85
2076.71
2120.36
2179.29
2238.07
2289.23
2333.29
2374.17
2416.26
2464.08
2521.77
2589.54
2665.5
2743.27
2813.87
2855.05
2858.22
2856.83
2747.39
2467.45
2392.57
2412.76
2452.78
2495.68
2529.19
2554.33
2575.97
2598.05
2623.37
2653.46
2687.9
2724.67
2758.74
2788.71
2818.26
2858.37
2920.69
2992.63
3021.91
3012.01
2915.83
2720.95
2675.35
2690.18
2714.35
2740.88
2759.03
2772.12
2789.36
2814.65
2845.08
2874.73
2897.82
2912.26
2921.4
2927.65
2937.71
2956.31
2986.55
3038.64
3079.66
3080.76
3064.33
2956.11
2844.55
2837.31
2853.65
2872.57
2889.15
2896.6
2899.42
2907.55
2924.41
2946.13
2968.22
2986.35
2998.89
3007.36
3014.32
3023.51
3038.75
3067.14
3104.29
3120.14
3121.18
3093.49
2993.94
2936.5
2941.37
2960.61
2986.87
3014.82
3035.22
3048.98
3062.2
3079.38
3103.22
3133.15
3163.84
3187.25
3200.74
3208.57
3215.4
3227.58
3243.39
3247.77
3250.72
3225.71
3141.63
3080.45
3075.46
3076.3
3086.3
3102.52
3116.89
3127.32
3137.11
3147.52
3157.71
3169.55
3184.87
3202.79
3219.97
3234.99
3249.4
3266.46
3290.01
3317.95
3330.85
3333.31
3322.41
3261.93
3186.72
3171.59
3171.35
3179.27
3193.64
3208.02
3217.12
3223.03
3228.58
3233.69
3240.98
3253.08
3270.31
3287.06
3298.91
3308.21
3319.59
3339.24
3369.34
3392.51
3407.29
3409.18
3379.4
3321.38
3304.97
3312.9
3325.81
3345.51
3368.29
3385.56
3397.44
3408.33
3420.04
3434.27
3453.16
3475.68
3494.23
3505.01
3512.25
3519.33
3529.63
3546.53
3564.83
3573.5
3577.47
3559
3490.75
3439.36
3435
3438.3
3449.52
3467.24
3487.16
3502.13
3512.17
3520.23
3528.57
3539.65
3557.36
3585.24
3617.91
3641.96
3657.24
3670.55
3685.85
3703.55
3725.37
3748.49
3761.73
3768.28
3760.78
3718.02
3677.01
3676.52
3686.22
3705.46
3731.72
3755.02
3770.23
3779.02
3785.54
3791.65
3799
3807.96
3818.76
3832.59
3849.38
3867.55
3886.08
3906.18
3929.17
3953.65
3974.12
3989.45
3994.03
3969.15
3922.17
3913.24
3925.1
3944.18
3969.51
4001.8
4025.56
4034.18
4035.9
4034.36
4029.28
4022.57
4013.87
4002.67
3988.19
3969.91
3947.24
3920.38
3891.07
3862.61
3837.25
3810.31
3770.94
3722.42
3649.58
3566.61
3516.25
3490.26
3470
3459.78
3446.66
3417.02
3379.08
3338.63
3298.72
3259.86
3221.98
3185.67
3151.99
3122.13
3094.87
3064.84
3028.45
2988.49
2947.69
2903.81
2849.89
2785.61
2704.65
2633.86
2592.97
2551.93
2505.94
2433.24
2295.73
2063.97
1735.46
1389.84
1200.89
3204.48
1622.72
2090.02
2510.84
2579.16
2583.97
2578.15
2575.28
2580.16
2587.21
2567.86
2464.32
2191.22
2062.88
2075.44
2122.03
2183.31
2243.2
2293.64
2335.33
2373.78
2414.55
2462.94
2522.83
2593.76
2672.17
2749.55
2814.26
2850.52
2853.54
2852.77
2741.26
2462.22
2390.94
2412.86
2453.3
2494.99
2526.23
2549.8
2571.59
2595.63
2624
2657.46
2694.42
2730.55
2762.35
2790.11
2818.35
2858.17
2921.49
2996.22
3028.56
3018.85
2921.71
2722.74
2673.48
2684.38
2709.44
2738.61
2759.91
2776.54
2795.2
2818.11
2844.26
2868.81
2888.65
2903.13
2913.64
2922.39
2934.2
2953.81
2985.11
3035.53
3070.2
3066.02
3046.13
2938.04
2833.27
2827.77
2847.99
2867.07
2883.7
2891.74
2895.79
2905.94
2924.56
2947.67
2969.91
2987.2
2999.67
3008.16
3015.38
3025.3
3041.77
3072.67
3108.47
3121.19
3119.33
3087.13
2985.53
2932.52
2939.01
2961.47
2989.81
3017.78
3036.68
3049.2
3062.39
3080.83
3106.67
3138
3168.84
3192.52
3206.37
3213.83
3219.97
3228.26
3238.39
3240.44
3241.67
3211.81
3126.19
3067.09
3061.12
3061.14
3071.04
3088.12
3103.93
3116.31
3128.29
3141.01
3153.52
3167.14
3183.21
3201.37
3218.08
3232.26
3246.39
3264.07
3288.36
3317.02
3330.51
3331.28
3320.2
3260.48
3185.67
3170.2
3171.63
3181.98
3199.34
3215.24
3224.11
3229.25
3233.84
3238.78
3246.38
3258.84
3276.13
3292.04
3302.71
3311.22
3322.22
3341.26
3369.52
3390.13
3402.81
3401.84
3368.67
3311.12
3298.4
3307.81
3322.79
3344.7
3369.58
3388.39
3401.8
3413.58
3426.42
3442.24
3463.16
3487
3505.43
3515.46
3522.13
3529.05
3538.77
3553.22
3567.91
3574.53
3576.4
3552.64
3482.9
3438.13
3435.76
3439.8
3451.68
3469.59
3490.38
3506.5
3517.6
3527.07
3536.73
3549.18
3567.45
3594.46
3626.18
3649.08
3661.41
3671.95
3685.04
3701.22
3722.12
3745.04
3758.72
3765.52
3757.84
3716.44
3677.01
3676.14
3684.54
3703.24
3729.16
3751.87
3767.15
3776.9
3784.77
3792.67
3801.82
3812.61
3823.61
3834.22
3844.58
3856.44
3871.25
3889.12
3910.81
3934.59
3954.5
3969.24
3973.43
3948.93
3903.25
3895.18
3908.28
3927.94
3952.96
3984.68
4008.49
4019.12
4024.54
4027.1
4027.15
4025.56
4021.76
4015.6
4006.26
3992.41
3974.1
3952.22
3928.65
3906.13
3885.42
3859.31
3823.03
3775.62
3703.43
3621.19
3572.82
3546.91
3525.42
3513.32
3501.7
3475.58
3437.43
3396.71
3355.73
3314.59
3273.57
3233.21
3195.01
3160.89
3131.15
3101.09
3064.56
3023.02
2981.64
2940.09
2891.42
2835.44
2762.32
2692.55
2651.66
2613.6
2574.27
2516.16
2399.13
2182.29
1849.15
1476.36
1263.55
3205.08
2170.74
2068.68
2507.3
2588.03
2591.73
2580.71
2577.19
2585.67
2598.71
2577.16
2452.13
2163.29
2057.74
2073.01
2122.34
2186.07
2247.22
2296.43
2336.08
2372.78
2413.03
2462.83
2525.51
2599.46
2679.04
2754.78
2812.44
2844.63
2848.18
2849.23
2737.83
2460.32
2391.69
2414.5
2454.4
2494.43
2523.76
2546.76
2569.46
2595.49
2626.77
2663.05
2701.18
2736.71
2767.19
2794.27
2822.37
2860.55
2921.65
2995.37
3027.74
3019.93
2922.84
2720.25
2667.41
2676.98
2704.63
2737.04
2762.02
2780.59
2797.85
2817.26
2838.73
2859.26
2877.99
2894.21
2907.49
2919.02
2933.13
2954.5
2987
3033.57
3061.78
3053.88
3030.63
2921.01
2823.13
2819.79
2843.16
2861.7
2877.43
2885.65
2891.27
2903.9
2924.93
2949.77
2972.4
2989.2
3001.5
3010.17
3017.92
3028.69
3046.45
3079.01
3114.16
3124.33
3119.85
3082.27
2978.44
2931.25
2939.98
2965.53
2994.77
3020.9
3036.63
3046.96
3059.63
3079.04
3106.28
3137.94
3168.04
3188.94
3200.12
3205.96
3211.33
3218.31
3226.76
3227.88
3227.92
3197.11
3114.96
3055.54
3048.25
3047.4
3057.3
3074.97
3092.24
3106.16
3119.94
3134.62
3148.95
3164.2
3181.67
3200.24
3216.63
3229.99
3243.17
3260.45
3284.96
3314.22
3328.46
3328.26
3317.16
3258.59
3184.53
3169.95
3173.79
3186.07
3205.33
3223.98
3233.7
3238.93
3243.52
3248.88
3256.76
3269.18
3285.58
3299.49
3308.12
3315.66
3326.31
3344.51
3370.61
3388.99
3399.15
3395.72
3359.09
3302.31
3292.02
3302.06
3318.45
3342.61
3370.25
3390.45
3404.16
3416.49
3430.42
3448.12
3470.82
3495.42
3513.22
3522.52
3528.65
3535.23
3544.59
3557.53
3568.44
3572.96
3570.93
3544.02
3480.34
3442.47
3441.31
3446.52
3459.09
3477.66
3498.69
3514.25
3525.61
3536.24
3547.22
3560.21
3577.66
3602.48
3631.53
3651.93
3662.84
3671.68
3682.16
3696.96
3716.82
3739.32
3753.03
3760.2
3753.14
3713.01
3674.54
3673.71
3681.54
3699.54
3724.78
3746.74
3761.46
3772.76
3782.67
3791.95
3801.21
3811.86
3824.8
3836.14
3844.97
3853.19
3864.21
3879.3
3898.23
3919.63
3937.35
3951.28
3953.86
3927.71
3883.62
3877.28
3892.18
3912.28
3937.63
3969.05
3992.16
4003.65
4010.86
4016.46
4020.65
4023.37
4025.43
4025.35
4021.54
4012.33
3998.47
3981.73
3964.07
3948.12
3932.5
3907.76
3874.91
3829.2
3756.79
3675.58
3630.39
3605.36
3583.74
3571.16
3561.43
3538.13
3498.77
3456.23
3412.82
3368.79
3324.23
3279.65
3236.42
3196.82
3161.83
3127.22
3086.24
3039.46
2993.74
2950.64
2902.93
2851.39
2783.39
2714.65
2672.38
2636.38
2602.63
2556.87
2461.13
2268
1947.19
1566.01
1339.42
3205.59
2148.21
2053.73
2505.81
2594.5
2598.78
2585.7
2579.75
2591.04
2609.11
2586.65
2442.68
2143.17
2054.12
2071.5
2123.15
2188.87
2251.25
2299.36
2336.84
2371.81
2412.19
2464.39
2530.68
2606.37
2685.15
2758.1
2809.51
2838.56
2843.76
2847.09
2737.48
2462.43
2394.87
2417.52
2455.48
2493.46
2521.99
2545.46
2569.38
2597.35
2630.61
2668.15
2706.44
2741.57
2772.27
2800.29
2828.48
2864.83
2920.91
2990.02
3018.85
3014.19
2920.05
2715.43
2659.76
2671
2701.64
2737.26
2764.63
2782.66
2797.38
2813.23
2830.38
2849.15
2868.48
2886.79
2902.87
2917.53
2934.26
2957.28
2990.74
3032.27
3055.55
3045.44
3018.42
2906.11
2814.06
2812.92
2839.18
2857.44
2872.41
2880.39
2887.02
2901.34
2924.45
2951.56
2975.05
2992.28
3004.63
3012.9
3020.77
3032.24
3051.1
3084.53
3120.35
3129.94
3122.92
3079.05
2972.73
2930.98
2941
2968.3
2997.71
3022.61
3036.67
3045.81
3058.21
3077.92
3104.76
3134.21
3160.34
3177.01
3184.32
3187.52
3191.65
3199.09
3209.52
3212.29
3215.81
3191.92
3111.48
3047.47
3039.36
3038.62
3048.84
3066.69
3084.43
3099.09
3113.76
3129.53
3144.98
3161.11
3179.75
3199.17
3215.69
3228.71
3241.17
3257.29
3280.89
3309.97
3324.69
3324.78
3314.47
3257.72
3183.87
3169.93
3176.85
3190.37
3210.84
3232.18
3243.9
3250.42
3256.5
3263.6
3272.36
3283.65
3296.78
3307.21
3313.88
3320.61
3331.28
3349.23
3373.43
3389.4
3396.3
3390.56
3350.93
3296.09
3287.62
3297.66
3314.76
3340.31
3369.82
3391.71
3406.47
3418.68
3432.24
3450.47
3473.87
3498.55
3515.76
3525.08
3531.47
3538.27
3547.43
3557.91
3564.62
3567.1
3563.18
3539.61
3485.67
3449.69
3448.65
3454.86
3468.52
3489.04
3510.66
3524.78
3535.08
3545.28
3556.12
3568.2
3583.75
3605.91
3633.13
3652.16
3662.3
3669.99
3678.43
3691.11
3709.78
3731.82
3745.4
3753.03
3746.39
3706.93
3669.04
3668.75
3676.96
3694.46
3718.76
3739.55
3753.19
3763.25
3772.58
3782.41
3793.91
3807.2
3820.95
3834.44
3846.5
3857.06
3867.27
3878.6
3892.79
3909.8
3924.25
3936.61
3936.47
3907.01
3864.77
3860.96
3877.51
3898.09
3923.75
3954.77
3977.36
3989.58
3997.78
4004.83
4011.87
4019.27
4026.19
4030.48
4030.92
4027.1
4018.44
4006.98
3995.24
3985.58
3974.45
3952.19
3923.22
3880.03
3806.61
3726.9
3685.68
3662.24
3641.25
3628.69
3619.82
3598.13
3558
3512.85
3465.45
3416.89
3367.77
3318.37
3270.35
3226.05
3185.73
3144.71
3097.11
3044.39
2993.52
2947.49
2899.49
2851.04
2787.76
2720.67
2676.69
2641.06
2610.24
2572.28
2491.57
2320.97
2021.97
1650.65
1423.53
3206.06
2125.49
2047.48
2503.82
2597.07
2602.39
2589.2
2581.22
2593.13
2613.68
2591.96
2435.99
2131.12
2052.82
2071.53
2124.44
2190.88
2253.55
2301.48
2337.99
2372.14
2413.32
2468.32
2537.58
2613.75
2690.01
2759.54
2806.2
2832.17
2839.29
2845.06
2740.6
2469.28
2399.9
2420.66
2456.41
2492.83
2521.2
2545.58
2571.2
2600.7
2634.92
2671.74
2708.71
2743.88
2776.55
2806.34
2834.97
2868.08
2918.55
2980.4
3004.06
3001.64
2913.06
2709.63
2652.12
2666.57
2699.54
2737.68
2766.04
2783.18
2795.28
2807.05
2821.83
2840.7
2861.23
2881.14
2899.38
2917.2
2936.23
2960.41
2994.07
3031.78
3052.02
3040.42
3010.07
2894.65
2806.72
2807.61
2834.84
2853.64
2868.64
2876.61
2883.98
2899.66
2924.24
2952.46
2976.55
2994.51
3007.3
3015.75