/*--------------------------------*- C++ -*----------------------------------*\
| =========                 |                                                 |
| \\      /  F ield         | OpenFOAM: The Open Source CFD Toolbox           |
|  \\    /   O peration     | Version:  2306                                  |
|   \\  /    A nd           | Website:  www.openfoam.com                      |
|    \\/     M anipulation  |                                                 |
\*---------------------------------------------------------------------------*/
FoamFile
{
    version     2.0;
    format      ascii;
    arch        "LSB;label=32;scalar=64";
    class       volVectorField;
    location    "0.16";
    object      U;
}
// * * * * * * * * * * * * * * * * * * * * * * * * * * * * * * * * * * * * * //

dimensions      [0 1 -1 0 0 0 0];

internalField   nonuniform List<vector> 
6000
(
(500 6.43497e-15 0)
(500 4.14139e-14 0)
(500 1.52773e-13 0)
(500 8.15101e-14 0)
(500 1.78555e-13 0)
(500 2.49804e-13 0)
(500 2.07397e-13 0)
(500 1.69247e-13 0)
(500 1.053e-13 0)
(500 6.37121e-14 0)
(500 9.7534e-14 0)
(500 1.76242e-13 0)
(500 1.2096e-13 0)
(500 7.69427e-16 0)
(500 -7.35903e-14 0)
(500 -1.0104e-13 0)
(500 -5.42131e-14 0)
(500 9.16785e-14 0)
(500 6.27463e-14 0)
(500 6.25294e-14 0)
(500 1.13348e-13 0)
(500 1.12474e-13 0)
(500 -6.62622e-15 0)
(500 -8.46363e-18 0)
(500 2.51877e-14 0)
(500 1.34929e-14 0)
(500 -4.37687e-14 0)
(500 -6.36707e-14 0)
(500 -8.28925e-14 0)
(500 -1.10185e-13 0)
(500 -1.73075e-13 0)
(500 -1.66293e-13 0)
(500 -1.73877e-14 0)
(500 -1.13794e-13 0)
(500 2.61901e-14 0)
(500 1.73803e-14 0)
(500 5.1264e-14 0)
(500 2.49501e-14 0)
(500 -1.071e-13 0)
(500 -5.98779e-14 0)
(500 -1.6616e-13 0)
(500 -2.51354e-14 0)
(500 -2.56669e-14 0)
(500 1.42826e-14 0)
(500 1.68603e-13 0)
(500 9.2633e-14 0)
(500 1.0308e-13 0)
(500 1.32456e-13 0)
(500 5.40969e-14 0)
(500 7.33322e-14 0)
(500 -1.54639e-13 0)
(500 -9.54315e-14 0)
(500 -6.75122e-14 0)
(500 -1.91356e-13 0)
(500 -6.44317e-14 0)
(500 2.95386e-14 0)
(500 -5.24218e-14 0)
(500 -2.44637e-15 0)
(500 1.92236e-14 0)
(500 -3.29615e-14 0)
(500 -1.591e-13 0)
(500 -2.0058e-13 0)
(500 -1.05612e-13 0)
(500 -9.28667e-15 0)
(500 3.05952e-13 0)
(500 -2.41817e-12 0)
(500 2.74661e-12 0)
(500 2.22958e-11 0)
(500 -1.77324e-10 0)
(500 7.08997e-10 0)
(500 -1.32759e-09 0)
(500 2.9243e-10 0)
(500 1.02997e-08 0)
(500 -2.55054e-08 0)
(500 1.63235e-08 0)
(500 2.18937e-07 0)
(499.999 -8.47103e-07 0)
(499.999 1.69671e-06 0)
(499.997 6.92516e-07 0)
(499.992 -1.21708e-05 0)
(499.984 3.97398e-05 0)
(499.966 -5.56962e-05 0)
(499.932 2.09947e-05 0)
(499.871 0.00014972 0)
(499.77 -0.00028069 0)
(499.624 0.000202526 0)
(499.468 0.000411673 0)
(499.386 -0.000314034 0)
(499.378 -4.69481e-05 0)
(499.384 -1.69463e-05 0)
(499.412 8.60472e-05 0)
(499.48 8.65632e-05 0)
(499.603 7.73651e-05 0)
(499.784 0.000648684 0)
(500.019 -0.000170077 0)
(500.295 -0.00109309 0)
(500.597 0.00101489 0)
(500.913 0.00182282 0)
(501.235 -0.00165053 0)
(501.557 -0.00191871 0)
(501.871 0.00346171 0)
(502.176 0.00421429 0)
(502.475 -0.00279535 0)
(502.767 -0.00417711 0)
(503.044 0.00292979 0)
(503.303 0.00629804 0)
(503.551 -0.00117159 0)
(503.785 -0.00581645 0)
(503.999 0.000266534 0)
(504.185 0.00719616 0)
(504.351 0.00166285 0)
(504.499 -0.00506184 0)
(504.628 -0.00300982 0)
(504.733 0.00322143 0)
(504.82 0.00393592 0)
(504.896 -0.000901204 0)
(504.964 -0.00335512 0)
(505.025 -0.00130317 0)
(505.078 0.00217849 0)
(505.127 0.00184537 0)
(505.178 -0.00104994 0)
(505.229 -0.00195019 0)
(505.273 -0.000418222 0)
(505.3 0.00121038 0)
(505.31 0.00112339 0)
(505.311 -0.000105348 0)
(505.311 -0.000824563 0)
(505.309 -0.000704644 0)
(505.307 -6.03466e-05 0)
(505.302 0.000259688 0)
(505.294 0.000305946 0)
(505.283 0.00012646 0)
(505.268 -0.000180212 0)
(505.25 -0.000332066 0)
(505.229 -0.000142774 0)
(505.206 -0.000154796 0)
(505.185 -0.000200542 0)
(505.167 -0.000117828 0)
(505.153 6.15392e-05 0)
(505.143 0.000148171 0)
(505.136 0.000165195 0)
(505.133 4.30162e-05 0)
(505.129 -4.6639e-05 0)
(505.125 -7.61093e-05 0)
(505.121 -8.53053e-05 0)
(505.118 -4.32258e-05 0)
(505.114 4.88754e-05 0)
(505.111 9.025e-05 0)
(505.11 9.59651e-05 0)
(505.109 7.34023e-05 0)
(505.111 4.20345e-06 0)
(505.112 -4.48343e-05 0)
(505.112 -6.10852e-05 0)
(505.113 -5.80446e-05 0)
(505.113 -1.63164e-05 0)
(505.115 2.78556e-05 0)
(505.119 3.79807e-05 0)
(505.125 2.68828e-05 0)
(505.133 -5.71909e-05 0)
(505.142 -0.000117688 0)
(505.152 -0.000126434 0)
(505.162 -0.00010187 0)
(505.171 -5.08981e-06 0)
(505.179 8.09015e-05 0)
(505.187 9.86284e-05 0)
(505.195 0.000100141 0)
(505.2 8.26843e-05 0)
(505.202 4.63112e-05 0)
(505.204 -1.17491e-05 0)
(505.204 -5.03798e-05 0)
(505.203 -6.22175e-05 0)
(505.201 -5.23075e-05 0)
(505.199 1.39849e-05 0)
(505.197 4.59286e-05 0)
(505.193 6.1418e-05 0)
(505.189 4.66047e-05 0)
(505.185 -1.73131e-05 0)
(505.179 -8.0687e-05 0)
(505.172 -9.45417e-05 0)
(505.165 -9.32885e-05 0)
(505.159 -7.40444e-05 0)
(505.154 -2.30581e-05 0)
(505.15 2.16589e-05 0)
(505.148 4.3606e-05 0)
(505.147 4.52241e-05 0)
(505.146 9.3973e-06 0)
(505.144 -1.99604e-05 0)
(505.142 -3.0975e-05 0)
(505.139 -3.31525e-05 0)
(505.135 -1.20972e-05 0)
(505.131 1.45762e-05 0)
(505.127 2.97585e-05 0)
(505.122 4.89951e-05 0)
(505.118 3.44438e-05 0)
(505.117 1.50465e-05 0)
(505.116 5.23318e-06 0)
(505.116 -4.27536e-06 0)
(505.117 -2.18905e-05 0)
(505.118 -4.44238e-05 0)
(505.121 -4.53083e-05 0)
(505.126 -3.46107e-05 0)
(505.134 -2.73676e-05 0)
(505.143 -1.29968e-05 0)
(505.153 1.34142e-05 0)
(505.162 4.33184e-05 0)
(505.17 7.17748e-05 0)
(505.175 6.89789e-05 0)
(505.18 3.44539e-05 0)
(505.184 1.17519e-05 0)
(505.188 -8.60466e-06 0)
(505.192 -3.46123e-05 0)
(505.196 -5.3762e-05 0)
(505.199 -3.6981e-05 0)
(505.201 -5.041e-06 0)
(505.201 3.28459e-05 0)
(505.2 6.31117e-05 0)
(505.199 5.90603e-05 0)
(505.198 1.04885e-05 0)
(505.197 -5.91285e-05 0)
(505.195 -0.000116157 0)
(505.191 -0.000126702 0)
(505.186 -0.000103455 0)
(505.18 -2.87974e-05 0)
(505.173 5.67385e-05 0)
(505.166 8.91015e-05 0)
(505.16 0.000101824 0)
(505.156 4.95774e-05 0)
(505.153 -2.24635e-05 0)
(505.15 -4.08018e-05 0)
(505.149 -3.606e-05 0)
(505.147 1.54073e-05 0)
(505.145 6.66909e-05 0)
(505.144 8.20009e-05 0)
(505.142 8.72524e-05 0)
(505.141 3.59231e-05 0)
(505.14 -6.84727e-05 0)
(505.139 -0.000133901 0)
(505.136 -0.000150107 0)
(505.133 -0.000139581 0)
(505.127 -5.49477e-05 0)
(505.121 3.06255e-05 0)
(505.115 7.65905e-05 0)
(505.111 0.000107825 0)
(505.111 5.0345e-05 0)
(505.112 -6.51335e-05 0)
(505.114 -0.000107218 0)
(505.116 -0.000118134 0)
(505.119 -6.04246e-05 0)
(505.124 3.57683e-05 0)
(505.131 0.000109096 0)
(505.141 0.000150269 0)
(505.153 0.000152967 0)
(505.164 0.000100931 0)
(505.174 -4.88111e-05 0)
(505.181 -0.00014992 0)
(505.186 -0.000170552 0)
(505.189 -0.000150207 0)
(505.189 5.24988e-06 0)
(505.19 0.000172824 0)
(505.192 0.00022173 0)
(505.195 0.000242847 0)
(505.199 0.000174287 0)
(505.203 -3.64743e-05 0)
(505.205 -0.000215689 0)
(505.206 -0.000256313 0)
(505.206 -0.000245503 0)
(505.204 -0.000162412 0)
(505.201 7.22041e-05 0)
(505.197 0.000198004 0)
(505.192 0.000214122 0)
(505.187 0.000196627 0)
(505.181 0.000100504 0)
(505.176 -7.96704e-05 0)
(505.169 -0.000157134 0)
(505.162 -0.000151329 0)
(505.157 -0.000112422 0)
(505.152 1.20713e-05 0)
(505.149 8.86497e-05 0)
(505.147 9.12756e-05 0)
(505.145 7.45262e-05 0)
(505.144 -2.05439e-05 0)
(505.145 -0.000160581 0)
(505.144 -0.000220585 0)
(505.143 -0.00022921 0)
(505.141 -0.000204332 0)
(505.137 -3.72457e-05 0)
(505.134 0.000117733 0)
(505.129 0.000190015 0)
(505.124 0.000214515 0)
(505.117 0.00021923 0)
(505.111 7.75346e-05 0)
(505.107 -0.000120961 0)
(505.104 -0.000149426 0)
(505.103 -0.000131286 0)
(505.103 -1.48602e-05 0)
(505.103 4.29246e-05 0)
(505.105 8.17716e-05 0)
(505.11 0.000111723 0)
(505.118 7.1026e-05 0)
(505.136 2.55335e-05 0)
(500 -3.58268e-14 0)
(500 -2.11204e-14 0)
(500 1.70738e-13 0)
(500 2.86124e-13 0)
(500 5.39086e-13 0)
(500 5.99709e-13 0)
(500 4.75642e-13 0)
(500 4.85646e-13 0)
(500 4.77696e-13 0)
(500 3.80401e-13 0)
(500 3.26958e-13 0)
(500 3.87923e-13 0)
(500 3.01956e-13 0)
(500 -2.95611e-14 0)
(500 -6.85531e-14 0)
(500 -4.46427e-14 0)
(500 1.74431e-13 0)
(500 1.50629e-13 0)
(500 -1.10169e-14 0)
(500 -6.71142e-14 0)
(500 1.27464e-13 0)
(500 9.56288e-14 0)
(500 -1.59311e-13 0)
(500 -7.43773e-14 0)
(500 -9.87077e-14 0)
(500 -3.5089e-14 0)
(500 -8.09843e-14 0)
(500 -8.21181e-14 0)
(500 -1.44489e-13 0)
(500 -1.65179e-13 0)
(500 -2.46978e-13 0)
(500 -2.18126e-13 0)
(500 -8.12887e-14 0)
(500 -2.74926e-13 0)
(500 -5.67519e-14 0)
(500 4.60005e-14 0)
(500 7.51282e-14 0)
(500 5.73832e-16 0)
(500 -2.88966e-13 0)
(500 -1.43264e-13 0)
(500 -2.18444e-13 0)
(500 -6.53428e-14 0)
(500 -7.25781e-14 0)
(500 5.74768e-14 0)
(500 9.61114e-14 0)
(500 8.41535e-14 0)
(500 1.1089e-13 0)
(500 8.49133e-14 0)
(500 -7.72635e-14 0)
(500 -3.62786e-14 0)
(500 -1.18292e-13 0)
(500 -4.50455e-14 0)
(500 -7.04377e-14 0)
(500 -2.84528e-13 0)
(500 -1.66928e-14 0)
(500 -3.09779e-14 0)
(500 -2.69164e-13 0)
(500 -1.5707e-13 0)
(500 -1.90859e-13 0)
(500 -1.32585e-13 0)
(500 -3.19377e-13 0)
(500 -3.05647e-13 0)
(500 -2.67735e-13 0)
(500 4.29998e-14 0)
(500 -2.03978e-13 0)
(500 -2.46138e-12 0)
(500 3.48496e-12 0)
(500 3.25867e-11 0)
(500 -2.61877e-10 0)
(500 9.37884e-10 0)
(500 -1.7388e-09 0)
(500 -1.47058e-09 0)
(500 2.06652e-08 0)
(500 -6.47266e-08 0)
(500 6.83311e-08 0)
(500 2.3682e-07 0)
(499.999 -1.09187e-06 0)
(499.999 1.68475e-06 0)
(499.997 2.79631e-06 0)
(499.992 -2.05787e-05 0)
(499.984 5.16042e-05 0)
(499.966 -6.31207e-05 0)
(499.932 -3.5506e-05 0)
(499.871 0.000293461 0)
(499.77 -0.000477894 0)
(499.624 2.90159e-05 0)
(499.468 0.000825429 0)
(499.386 -0.000499814 0)
(499.377 -0.000210176 0)
(499.384 -0.000149248 0)
(499.412 -3.28735e-05 0)
(499.48 4.45206e-05 0)
(499.603 0.000289517 0)
(499.784 0.000572496 0)
(500.019 -0.000476033 0)
(500.295 -0.000835944 0)
(500.597 0.00136497 0)
(500.913 0.000657731 0)
(501.236 -0.00291451 0)
(501.557 -0.00125216 0)
(501.87 0.0046991 0)
(502.178 0.00289948 0)
(502.478 -0.00446032 0)
(502.766 -0.00407745 0)
(503.041 0.00473591 0)
(503.303 0.00570138 0)
(503.554 -0.00319065 0)
(503.786 -0.00666936 0)
(503.997 0.00220042 0)
(504.185 0.00755408 0)
(504.355 0.000971363 0)
(504.502 -0.00625209 0)
(504.627 -0.00315888 0)
(504.732 0.00404228 0)
(504.821 0.00419838 0)
(504.898 -0.000678634 0)
(504.965 -0.00369374 0)
(505.025 -0.00125286 0)
(505.078 0.00223746 0)
(505.129 0.00192097 0)
(505.18 -0.00115062 0)
(505.229 -0.0022667 0)
(505.273 -0.000127199 0)
(505.3 0.00170776 0)
(505.31 0.00172668 0)
(505.312 0.000175285 0)
(505.311 -0.00128663 0)
(505.31 -0.00132315 0)
(505.307 -0.000340725 0)
(505.302 0.000497608 0)
(505.294 0.000757121 0)
(505.283 0.000724138 0)
(505.268 0.000198912 0)
(505.25 -0.000395226 0)
(505.228 -0.000343082 0)
(505.206 -0.000558329 0)
(505.185 -0.000725942 0)
(505.167 -0.000565984 0)
(505.153 2.15782e-05 0)
(505.143 0.000473944 0)
(505.136 0.00066456 0)
(505.132 0.000312239 0)
(505.129 -0.000141699 0)
(505.125 -0.000264553 0)
(505.121 -0.000330688 0)
(505.118 -0.000297887 0)
(505.114 6.01353e-06 0)
(505.111 0.000260309 0)
(505.11 0.00033358 0)
(505.109 0.000417012 0)
(505.111 0.000249526 0)
(505.112 -4.76399e-05 0)
(505.112 -0.000161153 0)
(505.113 -0.000321968 0)
(505.114 -0.000260062 0)
(505.115 4.59302e-06 0)
(505.119 0.000120014 0)
(505.125 0.000166542 0)
(505.133 0.000111725 0)
(505.142 -8.5212e-05 0)
(505.152 -0.000194164 0)
(505.162 -0.000327744 0)
(505.171 -0.000354196 0)
(505.179 -5.44915e-05 0)
(505.187 9.98028e-05 0)
(505.195 0.000122171 0)
(505.2 0.000144869 0)
(505.203 0.000168731 0)
(505.204 8.0108e-05 0)
(505.204 -3.87244e-05 0)
(505.203 -0.000131115 0)
(505.202 -0.000208445 0)
(505.199 -0.000113948 0)
(505.197 -3.46584e-05 0)
(505.194 6.71004e-05 0)
(505.189 0.000188309 0)
(505.185 0.000194015 0)
(505.179 5.72571e-05 0)
(505.172 -4.15297e-05 0)
(505.165 -0.000101359 0)
(505.159 -0.000178749 0)
(505.154 -0.000164636 0)
(505.151 -8.94415e-05 0)
(505.148 -1.12769e-05 0)
(505.147 0.000124226 0)
(505.146 0.000158249 0)
(505.144 0.000120885 0)
(505.142 8.69094e-05 0)
(505.139 1.58639e-05 0)
(505.135 -5.36709e-05 0)
(505.131 -5.60447e-05 0)
(505.127 -5.46804e-05 0)
(505.122 -3.58993e-05 0)
(505.118 2.99144e-05 0)
(505.117 0.000119849 0)
(505.116 0.00012025 0)
(505.116 0.000126148 0)
(505.117 0.000106761 0)
(505.118 -2.61927e-06 0)
(505.121 -0.000115883 0)
(505.126 -0.00015465 0)
(505.134 -0.000165578 0)
(505.143 -0.000130444 0)
(505.153 -4.88101e-05 0)
(505.162 4.16865e-05 0)
(505.17 0.000131544 0)
(505.175 0.000187318 0)
(505.18 0.000171814 0)
(505.184 0.00010595 0)
(505.188 3.2585e-05 0)
(505.192 -6.75508e-05 0)
(505.196 -0.000169415 0)
(505.2 -0.000166827 0)
(505.201 -7.6536e-05 0)
(505.201 5.73515e-05 0)
(505.2 0.000201073 0)
(505.199 0.000233699 0)
(505.198 0.000214005 0)
(505.196 3.61883e-05 0)
(505.194 -0.000235055 0)
(505.191 -0.000388731 0)
(505.186 -0.000419519 0)
(505.18 -0.000338699 0)
(505.173 -9.20266e-05 0)
(505.166 0.000130346 0)
(505.16 0.00028865 0)
(505.156 0.00031126 0)
(505.153 4.72326e-05 0)
(505.15 -7.35012e-05 0)
(505.148 -0.000106109 0)
(505.147 -4.74205e-05 0)
(505.145 0.000143792 0)
(505.144 0.000247056 0)
(505.142 0.000318286 0)
(505.141 0.000354838 0)
(505.14 0.000143574 0)
(505.139 -0.000196973 0)
(505.136 -0.000366854 0)
(505.133 -0.000468172 0)
(505.128 -0.000411006 0)
(505.121 -0.000162207 0)
(505.115 0.000102732 0)
(505.111 0.000320585 0)
(505.111 0.000379423 0)
(505.112 3.06944e-05 0)
(505.113 -0.000208939 0)
(505.116 -0.000318288 0)
(505.119 -0.000396132 0)
(505.124 -0.000253907 0)
(505.132 5.9838e-05 0)
(505.141 0.000355841 0)
(505.153 0.000510576 0)
(505.164 0.000541729 0)
(505.174 0.000353188 0)
(505.181 -9.22746e-05 0)
(505.186 -0.000432225 0)
(505.189 -0.000618344 0)
(505.19 -0.000597863 0)
(505.19 -5.04823e-05 0)
(505.192 0.000328761 0)
(505.195 0.0005536 0)
(505.199 0.000746895 0)
(505.202 0.000566666 0)
(505.205 5.20986e-05 0)
(505.205 -0.000376099 0)
(505.205 -0.000627129 0)
(505.204 -0.000786018 0)
(505.201 -0.000591633 0)
(505.197 -4.7243e-06 0)
(505.193 0.000262015 0)
(505.187 0.000534553 0)
(505.181 0.000747895 0)
(505.175 0.000440401 0)
(505.169 -0.000132036 0)
(505.162 -0.000319103 0)
(505.157 -0.0003575 0)
(505.152 -0.000262225 0)
(505.149 2.26562e-05 0)
(505.147 0.000204695 0)
(505.145 0.000283952 0)
(505.144 0.000342602 0)
(505.144 0.000120383 0)
(505.144 -0.000237108 0)
(505.143 -0.00046077 0)
(505.141 -0.000627371 0)
(505.137 -0.000607564 0)
(505.134 -0.000327998 0)
(505.129 -3.44629e-05 0)
(505.124 0.000293923 0)
(505.118 0.000600774 0)
(505.111 0.000690176 0)
(505.106 0.000292348 0)
(505.104 -5.37734e-05 0)
(505.102 -0.000183664 0)
(505.103 -0.000200993 0)
(505.103 -0.000193841 0)
(505.106 -0.00013017 0)
(505.111 9.56168e-05 0)
(505.118 0.000237579 0)
(505.136 0.000259156 0)
(500 -9.94371e-14 0)
(500 4.87516e-14 0)
(500 1.88089e-13 0)
(500 3.55166e-13 0)
(500 3.80632e-13 0)
(500 3.18041e-13 0)
(500 3.78969e-13 0)
(500 3.69478e-13 0)
(500 5.18964e-13 0)
(500 4.70495e-13 0)
(500 5.44984e-13 0)
(500 4.67136e-13 0)
(500 5.16096e-13 0)
(500 3.27738e-13 0)
(500 1.88388e-13 0)
(500 2.15847e-13 0)
(500 1.81887e-13 0)
(500 -6.5148e-15 0)
(500 9.62316e-15 0)
(500 -1.48063e-13 0)
(500 -4.2063e-14 0)
(500 -4.44618e-14 0)
(500 -1.79241e-13 0)
(500 -5.7915e-14 0)
(500 -1.39319e-13 0)
(500 7.98679e-14 0)
(500 -2.65304e-14 0)
(500 -1.71957e-13 0)
(500 -3.56515e-13 0)
(500 -3.74706e-13 0)
(500 -2.57892e-13 0)
(500 -2.55343e-13 0)
(500 -1.49587e-13 0)
(500 -1.95921e-13 0)
(500 -1.75524e-13 0)
(500 -5.28802e-14 0)
(500 -1.36014e-14 0)
(500 -4.29979e-16 0)
(500 -9.30337e-14 0)
(500 1.20739e-13 0)
(500 1.29387e-13 0)
(500 -4.4548e-14 0)
(500 -4.26331e-14 0)
(500 1.01748e-14 0)
(500 -9.902e-14 0)
(500 -5.58479e-14 0)
(500 3.94962e-14 0)
(500 9.63807e-14 0)
(500 -1.55221e-14 0)
(500 -6.27119e-14 0)
(500 7.01234e-14 0)
(500 5.17449e-14 0)
(500 -4.48398e-15 0)
(500 -1.15846e-13 0)
(500 -1.50954e-13 0)
(500 -2.68619e-13 0)
(500 -3.57568e-13 0)
(500 -2.83526e-13 0)
(500 -4.33721e-13 0)
(500 -3.15245e-13 0)
(500 -2.82551e-13 0)
(500 -2.91984e-13 0)
(500 -5.12208e-13 0)
(500 1.22753e-13 0)
(500 -5.3372e-13 0)
(500 -3.31153e-12 0)
(500 7.1226e-12 0)
(500 3.64962e-11 0)
(500 -3.43985e-10 0)
(500 1.35541e-09 0)
(500 -2.67757e-09 0)
(500 -1.16522e-09 0)
(500 2.71688e-08 0)
(500 -8.96182e-08 0)
(500 1.11257e-07 0)
(500 2.61068e-07 0)
(499.999 -1.41423e-06 0)
(499.999 2.33843e-06 0)
(499.997 3.21878e-06 0)
(499.992 -2.57024e-05 0)
(499.984 6.6699e-05 0)
(499.966 -7.75203e-05 0)
(499.932 -5.39487e-05 0)
(499.871 0.00038141 0)
(499.77 -0.000540071 0)
(499.623 -0.000124257 0)
(499.469 0.00124582 0)
(499.386 -0.000603185 0)
(499.377 -0.000331242 0)
(499.383 -0.000243236 0)
(499.412 -7.86888e-05 0)
(499.48 2.30255e-05 0)
(499.603 0.000479519 0)
(499.785 0.000567915 0)
(500.019 -0.0009467 0)
(500.295 -0.000281307 0)
(500.596 0.00206338 0)
(500.913 -0.000664322 0)
(501.236 -0.00426445 0)
(501.556 0.000577631 0)
(501.869 0.00618588 0)
(502.178 0.000813023 0)
(502.478 -0.00673534 0)
(502.766 -0.00223726 0)
(503.04 0.00731304 0)
(503.304 0.00384266 0)
(503.554 -0.00651338 0)
(503.785 -0.00625568 0)
(503.996 0.00544157 0)
(504.185 0.00763696 0)
(504.356 -0.00149884 0)
(504.502 -0.00765226 0)
(504.627 -0.00172415 0)
(504.731 0.00558619 0)
(504.821 0.00366652 0)
(504.899 -0.00191029 0)
(504.965 -0.00386201 0)
(505.025 -0.000102554 0)
(505.078 0.00313479 0)
(505.13 0.00137369 0)
(505.181 -0.00203322 0)
(505.229 -0.00254554 0)
(505.273 0.000591815 0)
(505.3 0.00228998 0)
(505.31 0.00188469 0)
(505.312 0.000158956 0)
(505.311 -0.00154653 0)
(505.31 -0.00166166 0)
(505.308 -0.000898819 0)
(505.303 0.000526263 0)
(505.295 0.000927311 0)
(505.284 0.000802805 0)
(505.268 0.000298714 0)
(505.249 -0.000169719 0)
(505.228 -0.00018356 0)
(505.206 -0.000637959 0)
(505.185 -0.000986063 0)
(505.168 -0.00083716 0)
(505.154 -6.66328e-05 0)
(505.144 0.000708067 0)
(505.137 0.000961786 0)
(505.132 0.000670859 0)
(505.129 -8.85603e-05 0)
(505.125 -0.000414466 0)
(505.121 -0.000490159 0)
(505.118 -0.000484789 0)
(505.114 -0.000172538 0)
(505.111 0.000250359 0)
(505.11 0.000388351 0)
(505.11 0.000519791 0)
(505.11 0.000438991 0)
(505.111 3.47707e-05 0)
(505.112 -0.000166425 0)
(505.113 -0.000354108 0)
(505.114 -0.000365926 0)
(505.116 -9.31383e-05 0)
(505.12 5.53062e-05 0)
(505.125 9.48687e-05 0)
(505.133 7.75099e-05 0)
(505.142 -9.31572e-05 0)
(505.152 -0.00023756 0)
(505.162 -0.000399041 0)
(505.171 -0.000406705 0)
(505.179 -0.000108583 0)
(505.187 0.000159367 0)
(505.195 0.000186578 0)
(505.2 0.000203528 0)
(505.203 0.000255477 0)
(505.204 0.000202346 0)
(505.204 0.000102411 0)
(505.203 -5.93146e-05 0)
(505.201 -0.000242615 0)
(505.2 -0.000208443 0)
(505.197 -0.000144805 0)
(505.194 -1.18573e-05 0)
(505.19 0.000172792 0)
(505.185 0.000270439 0)
(505.179 0.000120094 0)
(505.171 9.95869e-06 0)
(505.165 -5.47423e-05 0)
(505.159 -0.000168305 0)
(505.154 -0.000252683 0)
(505.151 -0.0002549 0)
(505.148 -0.00016846 0)
(505.147 7.45053e-05 0)
(505.146 0.000166435 0)
(505.144 0.000153905 0)
(505.142 0.000127384 0)
(505.139 7.2742e-05 0)
(505.135 7.11115e-06 0)
(505.131 -1.44756e-05 0)
(505.127 -3.16957e-05 0)
(505.122 -4.56099e-05 0)
(505.118 -6.12569e-06 0)
(505.117 9.38869e-05 0)
(505.116 9.43729e-05 0)
(505.116 8.70666e-05 0)
(505.117 6.94834e-05 0)
(505.118 -3.35974e-06 0)
(505.121 -9.45813e-05 0)
(505.126 -0.000135828 0)
(505.134 -0.000144417 0)
(505.143 -0.000115632 0)
(505.153 -6.60648e-05 0)
(505.163 -1.11045e-05 0)
(505.17 8.13299e-05 0)
(505.175 0.000233063 0)
(505.18 0.000251675 0)
(505.184 0.0001456 0)
(505.188 2.41855e-05 0)
(505.192 -9.90756e-05 0)
(505.196 -0.000223774 0)
(505.2 -0.00019493 0)
(505.201 -8.53498e-06 0)
(505.201 0.000120491 0)
(505.2 0.000240248 0)
(505.199 0.000248068 0)
(505.198 0.000195348 0)
(505.196 3.63362e-05 0)
(505.194 -0.000236907 0)
(505.191 -0.000467757 0)
(505.186 -0.000487276 0)
(505.18 -0.000373863 0)
(505.173 -0.000149618 0)
(505.167 0.000122435 0)
(505.16 0.00029673 0)
(505.156 0.000330079 0)
(505.153 0.000135186 0)
(505.15 -5.11783e-05 0)
(505.148 -8.65644e-05 0)
(505.147 -3.27594e-05 0)
(505.145 0.000131459 0)
(505.144 0.000276678 0)
(505.142 0.000361204 0)
(505.141 0.000376389 0)
(505.14 0.000244284 0)
(505.138 -0.000117472 0)
(505.136 -0.000398477 0)
(505.133 -0.000501857 0)
(505.128 -0.00046048 0)
(505.122 -0.000289711 0)
(505.116 7.24594e-05 0)
(505.112 0.000333374 0)
(505.111 0.000386452 0)
(505.112 0.000174909 0)
(505.113 -0.000199597 0)
(505.115 -0.000315228 0)
(505.119 -0.000404601 0)
(505.125 -0.000336474 0)
(505.132 -0.000116982 0)
(505.142 0.000216384 0)
(505.153 0.000539037 0)
(505.164 0.000620495 0)
(505.173 0.000431085 0)
(505.18 7.11269e-05 0)
(505.185 -0.00038298 0)
(505.188 -0.00065301 0)
(505.19 -0.000720523 0)
(505.191 -0.00029923 0)
(505.193 0.000225939 0)
(505.196 0.000558082 0)
(505.199 0.000795214 0)
(505.202 0.000704751 0)
(505.204 0.000307982 0)
(505.205 -0.000107171 0)
(505.205 -0.000559891 0)
(505.204 -0.000875883 0)
(505.202 -0.000918802 0)
(505.198 -0.000443742 0)
(505.193 6.57606e-05 0)
(505.188 0.000438096 0)
(505.181 0.00076227 0)
(505.175 0.000792949 0)
(505.168 0.000292005 0)
(505.162 -0.000237241 0)
(505.156 -0.000429305 0)
(505.152 -0.000383245 0)
(505.149 -0.000194269 0)
(505.147 2.18358e-05 0)
(505.146 0.000211427 0)
(505.145 0.000360842 0)
(505.144 0.000323055 0)
(505.143 -6.16021e-06 0)
(505.142 -0.000359221 0)
(505.14 -0.000520393 0)
(505.138 -0.000602124 0)
(505.134 -0.000571122 0)
(505.13 -0.000360968 0)
(505.125 0.000118485 0)
(505.118 0.000685109 0)
(505.111 0.000883003 0)
(505.106 0.000622437 0)
(505.103 0.000284595 0)
(505.102 -2.12744e-05 0)
(505.102 -0.000238995 0)
(505.103 -0.000396388 0)
(505.106 -0.000347834 0)
(505.111 -0.00010836 0)
(505.118 0.000128577 0)
(505.136 0.000285383 0)
(500 3.23101e-14 0)
(500 1.36283e-13 0)
(500 2.15589e-13 0)
(500 3.30046e-13 0)
(500 2.71014e-13 0)
(500 2.55653e-13 0)
(500 2.77648e-13 0)
(500 4.93653e-13 0)
(500 5.13013e-13 0)
(500 5.65361e-13 0)
(500 5.55671e-13 0)
(500 5.24294e-13 0)
(500 5.64119e-13 0)
(500 3.18542e-13 0)
(500 2.08546e-14 0)
(500 2.03813e-14 0)
(500 4.13835e-14 0)
(500 -8.80232e-14 0)
(500 -1.46504e-13 0)
(500 -4.58852e-13 0)
(500 -3.33127e-13 0)
(500 -4.0192e-13 0)
(500 -2.38967e-13 0)
(500 -3.64052e-13 0)
(500 -2.98676e-13 0)
(500 -9.32473e-14 0)
(500 -2.46418e-14 0)
(500 -1.85579e-14 0)
(500 -1.49489e-13 0)
(500 -2.33243e-13 0)
(500 2.10066e-14 0)
(500 -2.23951e-14 0)
(500 3.19097e-15 0)
(500 -8.75149e-14 0)
(500 -1.10859e-13 0)
(500 -7.17764e-14 0)
(500 -7.99992e-14 0)
(500 -3.97812e-14 0)
(500 3.09983e-14 0)
(500 3.44727e-13 0)
(500 3.70784e-13 0)
(500 1.51781e-13 0)
(500 -9.00469e-15 0)
(500 -3.08034e-14 0)
(500 -5.02765e-14 0)
(500 -2.72522e-15 0)
(500 7.79587e-14 0)
(500 8.09195e-14 0)
(500 1.12717e-14 0)
(500 2.24711e-14 0)
(500 1.55949e-13 0)
(500 -1.56834e-13 0)
(500 -1.3154e-13 0)
(500 -4.27729e-14 0)
(500 -3.15558e-13 0)
(500 -4.34604e-13 0)
(500 -4.30727e-13 0)
(500 -4.60521e-13 0)
(500 -5.90767e-13 0)
(500 -5.27632e-13 0)
(500 -2.72039e-13 0)
(500 -2.49701e-13 0)
(500 -6.204e-13 0)
(500 2.38347e-13 0)
(500 -5.88462e-13 0)
(500 -3.9129e-12 0)
(500 1.08515e-11 0)
(500 3.23075e-11 0)
(500 -3.79913e-10 0)
(500 1.61025e-09 0)
(500 -3.44988e-09 0)
(500 -1.90502e-10 0)
(500 2.88745e-08 0)
(500 -1.01081e-07 0)
(500 1.35382e-07 0)
(500 2.49012e-07 0)
(499.999 -1.5473e-06 0)
(499.999 2.60325e-06 0)
(499.997 3.43904e-06 0)
(499.992 -2.78682e-05 0)
(499.984 7.00537e-05 0)
(499.966 -7.28322e-05 0)
(499.932 -7.73521e-05 0)
(499.871 0.000411828 0)
(499.77 -0.000482434 0)
(499.623 -0.000386949 0)
(499.469 0.00153229 0)
(499.386 -0.000485833 0)
(499.377 -0.000408614 0)
(499.383 -0.000331639 0)
(499.411 -0.000174168 0)
(499.48 -3.79163e-05 0)
(499.603 0.000615539 0)
(499.785 0.000390135 0)
(500.019 -0.00126165 0)
(500.294 0.000618455 0)
(500.596 0.00240345 0)
(500.914 -0.00234007 0)
(501.236 -0.00468412 0)
(501.555 0.0030253 0)
(501.869 0.00650044 0)
(502.179 -0.0019631 0)
(502.478 -0.00768575 0)
(502.765 0.00129026 0)
(503.039 0.00852054 0)
(503.305 0.000733246 0)
(503.554 -0.00908238 0)
(503.785 -0.00368457 0)
(503.994 0.00835238 0)
(504.185 0.00632316 0)
(504.357 -0.00423712 0)
(504.503 -0.00768148 0)
(504.627 0.000972207 0)
(504.73 0.00581744 0)
(504.821 0.00193565 0)
(504.898 -0.00320443 0)
(504.965 -0.00301312 0)
(505.024 0.00168295 0)
(505.078 0.00311032 0)
(505.131 0.000211062 0)
(505.181 -0.00307243 0)
(505.23 -0.00234538 0)
(505.272 0.00168234 0)
(505.3 0.0024455 0)
(505.31 0.00123697 0)
(505.311 -0.000559634 0)
(505.311 -0.00138354 0)
(505.311 -0.00117983 0)
(505.309 -0.000339085 0)
(505.304 0.000531365 0)
(505.296 0.000763518 0)
(505.284 0.000592947 0)
(505.268 0.000238521 0)
(505.249 9.84198e-05 0)
(505.227 0.000149252 0)
(505.206 -0.000672249 0)
(505.186 -0.00125774 0)
(505.168 -0.00102649 0)
(505.154 -0.000209174 0)
(505.144 0.000735093 0)
(505.137 0.00111439 0)
(505.132 0.000964559 0)
(505.128 0.000274651 0)
(505.125 -0.000461545 0)
(505.121 -0.000594739 0)
(505.118 -0.000549299 0)
(505.115 -0.000282675 0)
(505.112 0.000184057 0)
(505.11 0.00039793 0)
(505.11 0.000500369 0)
(505.11 0.000495119 0)
(505.111 8.57872e-05 0)
(505.112 -0.000217 0)
(505.113 -0.000368879 0)
(505.114 -0.000430201 0)
(505.116 -0.000169063 0)
(505.12 5.36419e-05 0)
(505.126 9.11217e-05 0)
(505.133 7.02922e-05 0)
(505.142 -3.95332e-05 0)
(505.152 -0.000196891 0)
(505.162 -0.000418201 0)
(505.171 -0.00047054 0)
(505.18 -0.000261683 0)
(505.188 0.00016114 0)
(505.195 0.000313117 0)
(505.2 0.000338931 0)
(505.203 0.000333751 0)
(505.204 0.000175834 0)
(505.204 3.82609e-05 0)
(505.203 -0.000205354 0)
(505.201 -0.000256606 0)
(505.2 -0.000169269 0)
(505.197 -8.85725e-05 0)
(505.194 7.43298e-05 0)
(505.19 0.00022782 0)
(505.185 0.000206619 0)
(505.178 6.79374e-05 0)
(505.171 -5.80961e-05 0)
(505.165 -8.19679e-05 0)
(505.159 -0.000144275 0)
(505.154 -0.000196846 0)
(505.151 -0.000199566 0)
(505.149 -0.000100153 0)
(505.148 5.04977e-05 0)
(505.146 7.44619e-05 0)
(505.144 7.38591e-05 0)
(505.142 6.95329e-05 0)
(505.139 7.31784e-05 0)
(505.135 7.03291e-05 0)
(505.131 7.27817e-05 0)
(505.127 7.71912e-05 0)
(505.122 6.29816e-05 0)
(505.119 2.38942e-05 0)
(505.117 2.19257e-05 0)
(505.116 3.43749e-05 0)
(505.116 4.53721e-05 0)
(505.117 3.31932e-05 0)
(505.118 5.03348e-06 0)
(505.121 -1.65449e-05 0)
(505.126 -7.61335e-05 0)
(505.134 -0.000103973 0)
(505.143 -0.000102554 0)
(505.153 -9.23302e-05 0)
(505.163 -0.000115455 0)
(505.17 -8.60307e-05 0)
(505.176 0.000120142 0)
(505.18 0.000270772 0)
(505.184 0.000200522 0)
(505.188 0.000106919 0)
(505.192 1.03138e-05 0)
(505.196 -0.000155891 0)
(505.2 -0.000172934 0)
(505.201 4.98538e-06 0)
(505.201 8.90944e-05 0)
(505.2 0.000162791 0)
(505.199 0.000162462 0)
(505.198 7.02329e-05 0)
(505.196 -2.28815e-06 0)
(505.194 -0.000133117 0)
(505.191 -0.000321678 0)
(505.186 -0.000431535 0)
(505.18 -0.000387377 0)
(505.174 -0.000181352 0)
(505.167 3.86887e-05 0)
(505.161 0.000214042 0)
(505.156 0.000265687 0)
(505.152 0.000219586 0)
(505.15 3.64105e-05 0)
(505.148 -4.67215e-05 0)
(505.147 9.07993e-06 0)
(505.145 0.000160286 0)
(505.144 0.000285475 0)
(505.143 0.000323471 0)
(505.141 0.000313495 0)
(505.14 0.000193019 0)
(505.138 -6.95845e-05 0)
(505.136 -0.0003825 0)
(505.132 -0.000496749 0)
(505.128 -0.000504926 0)
(505.122 -0.000352861 0)
(505.116 7.59489e-06 0)
(505.112 0.000343502 0)
(505.111 0.000361359 0)
(505.111 0.000261213 0)
(505.113 6.34446e-07 0)
(505.115 -0.000290962 0)
(505.119 -0.000344254 0)
(505.125 -0.000308974 0)
(505.133 -0.000164358 0)
(505.142 6.1734e-05 0)
(505.153 0.00038597 0)
(505.164 0.000659079 0)
(505.173 0.000682666 0)
(505.18 0.000193911 0)
(505.184 -0.000285194 0)
(505.187 -0.000647175 0)
(505.19 -0.000797132 0)
(505.192 -0.000554539 0)
(505.194 4.13358e-05 0)
(505.197 0.000501832 0)
(505.2 0.000791299 0)
(505.202 0.000853065 0)
(505.204 0.000538748 0)
(505.204 4.34356e-05 0)
(505.204 -0.000307194 0)
(505.203 -0.000741204 0)
(505.202 -0.000941088 0)
(505.199 -0.000762442 0)
(505.194 -0.00022078 0)
(505.188 0.000368279 0)
(505.182 0.000674898 0)
(505.175 0.000778185 0)
(505.167 0.00054275 0)
(505.161 7.43782e-06 0)
(505.156 -0.000425932 0)
(505.152 -0.000318362 0)
(505.149 -0.000235594 0)
(505.148 -0.000103207 0)
(505.146 0.000180042 0)
(505.145 0.000279883 0)
(505.144 8.06169e-05 0)
(505.143 -5.93069e-05 0)
(505.142 -0.000303035 0)
(505.14 -0.000476155 0)
(505.138 -0.000677178 0)
(505.135 -0.000696004 0)
(505.131 -0.000313923 0)
(505.125 0.000276491 0)
(505.119 0.000676108 0)
(505.111 0.0006895 0)
(505.106 0.000568379 0)
(505.102 0.000477516 0)
(505.101 0.000118128 0)
(505.102 -0.000320613 0)
(505.103 -0.00026747 0)
(505.106 -0.000209484 0)
(505.111 -0.000165169 0)
(505.119 5.31756e-05 0)
(505.136 0.000249871 0)
(500 2.64002e-14 0)
(500 -2.91426e-14 0)
(500 2.44037e-14 0)
(500 9.68774e-14 0)
(500 2.16983e-13 0)
(500 1.79317e-13 0)
(500 2.56246e-13 0)
(500 2.56142e-13 0)
(500 3.34878e-13 0)
(500 3.34924e-13 0)
(500 4.00364e-13 0)
(500 5.2953e-13 0)
(500 3.46483e-13 0)
(500 1.98385e-13 0)
(500 1.14761e-13 0)
(500 -5.78743e-14 0)
(500 -5.38571e-14 0)
(500 -5.65982e-14 0)
(500 -1.94861e-13 0)
(500 -3.92623e-13 0)
(500 -3.32573e-13 0)
(500 -4.90065e-13 0)
(500 -2.92551e-13 0)
(500 -5.10198e-13 0)
(500 -3.14175e-13 0)
(500 -3.09375e-14 0)
(500 8.66097e-14 0)
(500 1.10036e-13 0)
(500 1.43402e-13 0)
(500 4.29116e-14 0)
(500 8.69605e-14 0)
(500 1.66626e-13 0)
(500 2.09839e-13 0)
(500 1.07268e-13 0)
(500 4.8331e-14 0)
(500 8.15535e-14 0)
(500 -5.03771e-14 0)
(500 -4.48964e-14 0)
(500 1.71217e-13 0)
(500 2.34566e-13 0)
(500 4.33641e-13 0)
(500 3.78036e-13 0)
(500 2.52029e-13 0)
(500 7.31512e-14 0)
(500 -1.72944e-14 0)
(500 -3.37312e-15 0)
(500 -6.27703e-14 0)
(500 2.92453e-14 0)
(500 1.22721e-13 0)
(500 2.21699e-13 0)
(500 7.54938e-14 0)
(500 -1.62933e-13 0)
(500 -1.58863e-13 0)
(500 -6.25181e-14 0)
(500 -2.60101e-13 0)
(500 -5.24503e-13 0)
(500 -3.2176e-13 0)
(500 -5.35556e-13 0)
(500 -5.44109e-13 0)
(500 -4.59619e-13 0)
(500 -3.41666e-13 0)