/*--------------------------------*- C++ -*----------------------------------*\
| =========                 |                                                 |
| \\      /  F ield         | OpenFOAM: The Open Source CFD Toolbox           |
|  \\    /   O peration     | Version:  2306                                  |
|   \\  /    A nd           | Website:  www.openfoam.com                      |
|    \\/     M anipulation  |                                                 |
\*---------------------------------------------------------------------------*/
FoamFile
{
    version     2.0;
    format      ascii;
    arch        "LSB;label=32;scalar=64";
    class       volVectorField;
    location    "0.16";
    object      U;
}
// * * * * * * * * * * * * * * * * * * * * * * * * * * * * * * * * * * * * * //

dimensions      [0 1 -1 0 0 0 0];

internalField   nonuniform List<vector> 
6000
(
(-2348.12 -0.0482808 0)
(-948.453 -4.05724 0)
(48.8267 0.793319 0)
(317.488 1.59032 0)
(376.28 0.670523 0)
(366.758 -0.196536 0)
(354.16 -1.09308 0)
(338.59 -0.471273 0)
(329.117 -0.0752137 0)
(311.678 -2.52188 0)
(282.094 -3.16731 0)
(217.053 -2.48427 0)
(-25.2378 -1.9967 0)
(-203.079 -0.637039 0)
(-194.752 -0.2501 0)
(-176.92 0.178945 0)
(-153.644 1.1083 0)
(-130.715 2.35873 0)
(-98.6057 2.24885 0)
(-51.0328 2.72513 0)
(5.97457 3.87508 0)
(65.9391 3.91878 0)
(123.668 3.46696 0)
(170.242 3.41035 0)
(195.573 1.99212 0)
(208.352 1.20438 0)
(232.285 -1.20071 0)
(279.042 -1.04631 0)
(336.681 0.861035 0)
(390.439 -0.0912761 0)
(393.462 -0.593415 0)
(282.722 -0.956927 0)
(-13.8514 -1.76981 0)
(-109.392 -2.67982 0)
(-115.7 -2.15569 0)
(-79.0073 -2.8022 0)
(-34.5949 -2.76313 0)
(0.846536 -1.35195 0)
(25.3889 -0.507001 0)
(37.7772 -0.616118 0)
(45.7613 -1.66694 0)
(61.0546 -2.58869 0)
(89.6735 -2.30792 0)
(126.864 -0.853701 0)
(165.875 0.848926 0)
(198.238 1.93864 0)
(213.55 2.22148 0)
(217.203 0.0662845 0)
(232.991 -3.07346 0)
(275.688 -4.25006 0)
(321.872 -4.38541 0)
(351.935 -3.85486 0)
(339.962 -3.42303 0)
(206.368 -2.2454 0)
(22.5736 -1.21775 0)
(2.61244 -0.879828 0)
(-1.18721 -0.856983 0)
(10.1118 -1.13029 0)
(21.7118 -1.83083 0)
(33.7038 -2.6162 0)
(49.0278 -2.57301 0)
(68.0978 -2.14459 0)
(90.4716 -1.67032 0)
(113.185 -0.924433 0)
(131.573 -0.252062 0)
(142.098 0.0361885 0)
(146.275 -0.149505 0)
(149.504 -1.60592 0)
(156.608 -2.51548 0)
(168.584 -2.68743 0)
(186.028 -2.01628 0)
(211.653 -0.616507 0)
(248.891 0.457243 0)
(271.419 0.84678 0)
(276.014 1.06694 0)
(245.956 1.55093 0)
(122.576 1.68378 0)
(23.6947 1.34445 0)
(5.50957 0.837298 0)
(6.82539 0.584925 0)
(22.8945 0.0443096 0)
(43.8915 0.0426565 0)
(60.9882 0.128507 0)
(75.4324 -0.111325 0)
(90.5887 -1.06949 0)
(107.745 -1.48985 0)
(125.417 -1.94057 0)
(139.988 -2.60352 0)
(147.895 -3.59852 0)
(149.026 -5.18773 0)
(146.57 -5.74763 0)
(146.865 -6.40315 0)
(152.608 -5.96346 0)
(166.538 -5.58432 0)
(188.761 -4.47953 0)
(213.586 -3.26571 0)
(221.546 -2.76427 0)
(210.71 -2.79361 0)
(177.16 -1.98138 0)
(90.9319 -0.513875 0)
(38.0284 1.00303 0)
(37.2262 1.70973 0)
(50.9563 2.72587 0)
(70.1577 3.44623 0)
(88.9493 3.92269 0)
(100.5 4.33741 0)
(104.896 4.51067 0)
(107.565 4.31676 0)
(113.616 4.25649 0)
(124.524 4.03306 0)
(139.417 3.92881 0)
(154.524 3.46926 0)
(165.368 2.98741 0)
(172.488 2.87579 0)
(179.149 3.00326 0)
(188.192 3.23354 0)
(204.651 3.14706 0)
(229.368 2.92331 0)
(239.375 2.76044 0)
(230.583 2.88539 0)
(198.833 3.27984 0)
(125.322 3.52239 0)
(53.1098 3.71582 0)
(41.4984 3.96584 0)
(50.8812 4.12832 0)
(67.5199 4.52241 0)
(89.0566 4.52741 0)
(106.314 4.17611 0)
(117.326 3.40624 0)
(125.19 2.558 0)
(131.094 1.74514 0)
(135.115 -0.282815 0)
(139.477 -1.688 0)
(144.876 -3.1256 0)
(150.452 -3.38781 0)
(155.051 -2.9773 0)
(162.091 -2.50716 0)
(168.424 -1.84083 0)
(176.071 -1.18444 0)
(185.72 -0.738527 0)
(202.482 -0.374046 0)
(213.901 -0.198944 0)
(211.885 -0.168079 0)
(197.921 -0.385539 0)
(153.855 -0.964221 0)
(88.1937 -1.4411 0)
(68.2783 -1.75602 0)
(68.2532 -2.08555 0)
(75.4125 -2.48471 0)
(90.231 -2.53302 0)
(105.937 -2.72469 0)
(116.077 -2.64421 0)
(122.394 -2.9166 0)
(128.104 -3.48878 0)
(134.465 -4.53171 0)
(142.735 -5.87827 0)
(153.499 -6.91766 0)
(164.591 -7.81495 0)
(171.467 -8.46061 0)
(176.464 -8.94801 0)
(182.607 -9.29096 0)
(192.008 -8.84176 0)
(203.392 -8.08209 0)
(213.144 -7.52549 0)
(217.657 -6.78946 0)
(212.75 -6.02709 0)
(189.343 -4.47399 0)
(133.61 -2.50253 0)
(80.7758 -1.19421 0)
(71.3448 -0.484222 0)
(74.4555 0.0274343 0)
(84.2919 0.68334 0)
(99.4242 1.12091 0)
(115.598 1.3911 0)
(125.57 1.54958 0)
(131.347 1.7162 0)
(134.478 1.77551 0)
(138.141 1.66496 0)
(142.879 1.49873 0)
(150.808 1.31209 0)
(162.749 1.10518 0)
(175.063 0.957796 0)
(181.936 0.493189 0)
(184.45 -0.120197 0)
(185.748 -0.615921 0)
(187.653 -0.849335 0)
(193.52 -1.00934 0)
(201.885 -0.969977 0)
(204.899 -0.677688 0)
(200.713 -0.338675 0)
(185.593 0.0538835 0)
(141.838 0.325573 0)
(95.6167 0.480357 0)
(85.8635 0.509423 0)
(88.4505 0.496835 0)
(99.2217 0.34091 0)
(118.501 -0.440222 0)
(133.897 -1.36779 0)
(141.315 -2.32273 0)
(145.312 -3.63072 0)
(147.164 -4.65635 0)
(148.707 -5.28579 0)
(151.264 -5.85976 0)
(155.335 -6.31861 0)
(162.818 -6.84861 0)
(173.783 -7.34357 0)
(181.767 -7.55093 0)
(187.325 -7.51984 0)
(189.087 -7.46232 0)
(189.898 -6.94278 0)
(191.56 -6.16069 0)
(195.275 -5.07895 0)
(200.689 -3.61295 0)
(203.649 -2.06359 0)
(200.085 -0.8299 0)
(184.742 -0.311191 0)
(144.611 -0.670795 0)
(101.951 -1.16219 0)
(91.7488 -1.47668 0)
(91.4369 -1.60915 0)
(95.2123 -1.71654 0)
(105.187 -1.82129 0)
(115.744 -2.01826 0)
(119.619 -2.30901 0)
(121.066 -2.43512 0)
(122.571 -2.44727 0)
(124.619 -2.36662 0)
(128.482 -2.25883 0)
(134.834 -2.12794 0)
(145.323 -1.98561 0)
(160.216 -1.77623 0)
(175.178 -1.37192 0)
(184.639 -0.701323 0)
(189.511 -0.148196 0)
(193.829 0.0814842 0)
(200.174 0.0255883 0)
(211.303 -0.287687 0)
(223.667 -0.811022 0)
(230.063 -1.66031 0)
(227.532 -2.35515 0)
(204.293 -2.8438 0)
(144.118 -2.77493 0)
(106.694 -1.97791 0)
(102.513 -1.00757 0)
(106.041 0.222471 0)
(114.257 1.3791 0)
(125.201 2.22351 0)
(127.836 2.873 0)
(127.609 3.23577 0)
(126.541 3.5305 0)
(125.213 3.84725 0)
(125.218 4.10815 0)
(126.991 4.30465 0)
(132.105 4.3648 0)
(142.394 4.18196 0)
(157.355 3.69251 0)
(172.256 3.08343 0)
(180.956 2.7232 0)
(182.906 2.58672 0)
(182.151 2.5051 0)
(182.247 2.45865 0)
(186.926 2.42638 0)
(197.702 2.34197 0)
(204.594 2.13644 0)
(197.941 1.94967 0)
(175.414 1.59145 0)
(133.256 1.10999 0)
(108.009 0.698979 0)
(101.601 0.493082 0)
(107.724 0.431411 0)
(123.041 0.460606 0)
(133.753 0.415683 0)
(133.762 0.334178 0)
(130.685 0.252095 0)
(128.373 -0.414767 0)
(128.795 -1.27053 0)
(132.796 -2.36179 0)
(141.516 -3.28207 0)
(155.833 -3.80361 0)
(173.173 -3.86943 0)
(184.384 -3.55551 0)
(184.96 -2.88904 0)
(180.713 -2.24633 0)
(176.282 -1.37601 0)
(173.609 -0.352331 0)
(171.858 0.884968 0)
(165.928 1.99766 0)
(149.057 2.65202 0)
(117.513 3.15907 0)
(92.8664 3.37151 0)
(90.3533 3.18774 0)
(103.658 2.61806 0)
(119.423 1.80554 0)
(121.505 0.333058 0)
(115.451 -1.028 0)
(110.905 -3.18535 0)
(112.071 -4.12851 0)
(118.381 -3.83421 0)
(139.566 -3.4363 0)
(174.605 -4.37345 0)
(-2348.94 0.170139 0)
(-962.409 -15.8049 0)
(51.8501 -0.413892 0)
(318.974 1.71743 0)
(377.162 1.83676 0)
(368.381 1.28855 0)
(355.414 1.40809 0)
(339.449 2.97972 0)
(327.223 2.82688 0)
(308.305 -2.38876 0)
(280.716 -3.63472 0)
(218.136 -3.74007 0)
(-21.0689 -1.49052 0)
(-201.997 2.91697 0)
(-194.601 3.12717 0)
(-176.98 3.7279 0)
(-153.554 5.85281 0)
(-130.11 8.84976 0)
(-97.7967 9.21876 0)
(-51.1886 10.4712 0)
(4.73598 12.1517 0)
(63.831 11.0858 0)
(120.708 8.44368 0)
(166.799 6.91177 0)
(192.746 2.38663 0)
(208.149 -0.417642 0)
(235.176 -3.00057 0)
(282.787 0.454304 0)
(338.454 4.71435 0)
(388.513 1.54714 0)
(388.831 -1.83134 0)
(277.284 -5.5213 0)
(-16.3188 -8.58542 0)
(-109.05 -8.6645 0)
(-110.842 -4.41717 0)
(-74.7954 -2.27264 0)
(-32.7893 0.329183 0)
(0.396337 1.27927 0)
(23.1118 0.56242 0)
(35.3188 -0.884056 0)
(45.3436 -2.63312 0)
(63.8214 -0.814849 0)
(92.9987 3.03246 0)
(129.315 6.56531 0)
(166.968 8.8454 0)
(197.233 9.85734 0)
(210.931 9.09468 0)
(214.193 5.35897 0)
(229.29 1.22473 0)
(270.986 -0.432028 0)
(317.21 -2.25905 0)
(347.887 -4.61739 0)
(337.199 -7.18103 0)
(208.86 -7.08022 0)
(23.5389 -2.99963 0)
(1.06165 -3.0314 0)
(-3.9582 -4.65948 0)
(7.48818 -6.2642 0)
(20.6932 -8.60283 0)
(34.6408 -8.74403 0)
(50.6524 -7.56574 0)
(69.9629 -5.89084 0)
(91.9056 -4.32422 0)
(113.41 -2.99822 0)
(130.366 -3.07466 0)
(139.865 -4.87555 0)
(144.189 -6.80945 0)
(148.151 -10.4418 0)
(157.332 -11.1782 0)
(170.56 -9.73786 0)
(188.112 -8.10407 0)
(213.438 -7.10091 0)
(251.443 -6.0325 0)
(273.595 -5.04522 0)
(278.16 -4.6898 0)
(248.549 -4.07782 0)
(124.789 -2.2127 0)
(23.8941 -1.95364 0)
(5.91961 -2.46139 0)
(7.64244 -2.12045 0)
(24.2057 -1.93253 0)
(45.0844 -0.4436 0)
(61.6341 0.563043 0)
(75.7747 0.68055 0)
(90.6308 -0.50751 0)
(106.987 -1.39567 0)
(123.187 -3.01295 0)
(136.066 -5.94804 0)
(143.389 -10.2253 0)
(145.685 -14.8096 0)
(145.63 -16.8339 0)
(149.641 -15.7042 0)
(157.587 -11.9466 0)
(171.731 -7.03596 0)
(192.286 -3.20632 0)
(216.23 -1.11563 0)
(223.182 -0.675052 0)
(211.978 -0.667581 0)
(178.806 0.925545 0)
(92.3983 3.07034 0)
(38.5054 5.49893 0)
(37.3577 6.64028 0)
(50.7931 8.157 0)
(69.6907 9.01116 0)
(88.1307 9.5269 0)
(99.1468 10.1592 0)
(103.442 10.8443 0)
(106.225 11.0129 0)
(112.164 11.6464 0)
(122.754 11.8245 0)
(137.226 11.7759 0)
(152.23 10.7712 0)
(163.549 8.94528 0)
(171.524 7.60279 0)
(178.458 5.97547 0)
(187.986 3.93285 0)
(204.635 2.21811 0)
(229.566 1.41264 0)
(239.514 0.719073 0)
(231.578 1.00338 0)
(202.05 1.84497 0)
(129.595 3.0429 0)
(57.0965 4.06845 0)
(44.5861 6.04841 0)
(52.682 6.5598 0)
(68.2572 7.39439 0)
(89.2823 7.13064 0)
(105.86 6.38205 0)
(116.276 5.30187 0)
(123.467 4.0901 0)
(128.12 1.47313 0)
(131.069 -2.04402 0)
(135.539 -5.29091 0)
(142.51 -8.96936 0)
(150.234 -10.4522 0)
(155.621 -10.1327 0)
(162.258 -9.52054 0)
(168.531 -8.9555 0)
(176.651 -8.26491 0)
(186.823 -7.56225 0)
(204.007 -6.3654 0)
(214.936 -5.10999 0)
(212.642 -4.37422 0)
(198.569 -3.70307 0)
(153.693 -4.01732 0)
(88.2411 -5.11717 0)
(69.1734 -5.4884 0)
(69.6965 -5.31034 0)
(76.4895 -5.07767 0)
(91.2057 -4.0983 0)
(106.947 -2.36561 0)
(116.849 -0.956947 0)
(122.697 -0.523045 0)
(127.464 -0.841201 0)
(132.513 -1.81425 0)
(139.265 -3.33247 0)
(148.949 -5.80703 0)
(160.115 -8.6292 0)
(168.114 -10.8891 0)
(173.288 -10.8702 0)
(178.701 -12.0286 0)
(187.459 -14.2271 0)
(199.516 -16.1619 0)
(210.756 -17.9835 0)
(216.919 -18.8621 0)
(212.783 -19.6494 0)
(192.737 -18.4725 0)
(139.555 -13.4976 0)
(83.2418 -8.49266 0)
(72.6799 -6.10074 0)
(75.7164 -4.64893 0)
(85.381 -2.43893 0)
(100.026 -0.266283 0)
(115.656 1.26504 0)
(125.322 2.21915 0)
(130.856 3.03984 0)
(133.65 3.34766 0)
(137.377 3.10501 0)
(142.057 2.47632 0)
(150.071 1.6505 0)
(162.23 0.862008 0)
(174.729 0.0423848 0)
(181.634 -0.873047 0)
(184.218 -1.48026 0)
(185.661 -2.17329 0)
(187.667 -2.51452 0)
(193.559 -2.69181 0)
(202.091 -2.49248 0)
(205.315 -2.06048 0)
(201.361 -1.88129 0)
(187.023 -1.84177 0)
(144.839 -0.781294 0)
(97.8902 0.994849 0)
(87.5916 2.16678 0)
(89.9584 2.83891 0)
(100.055 3.37038 0)
(118.514 3.14083 0)
(133.008 2.33387 0)
(139.912 1.38835 0)
(142.943 -0.0989834 0)
(143.535 -1.86401 0)
(144.128 -3.88754 0)
(146.657 -5.91597 0)
(150.775 -8.01073 0)
(158.374 -10.2076 0)
(169.666 -12.9607 0)
(178.443 -15.4949 0)
(183.833 -17.5307 0)
(185.836 -19.561 0)
(187.581 -21.2327 0)
(190.6 -22.1212 0)
(197.048 -21.4556 0)
(204.406 -19.0918 0)
(208.071 -15.5973 0)
(203.884 -11.687 0)
(186.943 -7.89016 0)
(144.337 -6.68251 0)
(101.753 -7.55646 0)
(91.823 -8.04469 0)
(91.5994 -8.04069 0)
(95.3429 -7.88557 0)
(105.452 -7.71419 0)
(116.176 -7.76086 0)
(119.895 -8.13376 0)
(121.421 -8.29695 0)
(122.954 -8.29716 0)
(125.088 -8.14839 0)
(129.001 -7.88968 0)
(135.112 -7.63629 0)
(145.28 -7.49014 0)
(160.072 -7.46008 0)
(175.635 -7.27992 0)
(185.745 -6.42591 0)
(190.605 -5.23234 0)
(194.836 -4.2106 0)
(200.869 -3.25469 0)
(211.414 -2.76749 0)
(222.358 -3.33814 0)
(227.899 -4.86778 0)
(224.912 -6.78026 0)
(201.413 -9.39071 0)
(142.751 -12.0394 0)
(108.056 -12.2129 0)
(104.539 -10.7105 0)
(108.82 -8.64363 0)
(117.775 -5.61761 0)
(128.334 -2.1177 0)
(130.575 0.996595 0)
(130.393 3.47517 0)
(128.859 5.25702 0)
(127.165 6.55188 0)
(127.05 7.49302 0)
(128.64 8.41254 0)
(133.057 9.32621 0)
(141.971 9.68977 0)
(155.564 8.88898 0)
(170.112 6.96095 0)
(179.729 5.15398 0)
(182.726 4.30441 0)
(182.469 4.13433 0)
(182.798 4.26525 0)
(187.609 4.75538 0)
(198.051 5.40541 0)
(204.512 5.52681 0)
(197.254 5.22351 0)
(174.103 4.00759 0)
(131.496 2.14027 0)
(107.436 0.802789 0)
(101.569 0.260731 0)
(108.158 -0.0365826 0)
(124.058 0.14082 0)
(135.21 0.674375 0)
(135.626 1.55352 0)
(132.135 2.61195 0)
(128.951 3.25567 0)
(128.567 3.44839 0)
(131.146 2.91928 0)
(138.277 1.03214 0)
(151.368 -2.22983 0)
(169.019 -5.94904 0)
(182.599 -8.02613 0)
(184.7 -7.59602 0)
(180.342 -6.54682 0)
(176.134 -5.61087 0)
(174.398 -4.21474 0)
(173.668 -2.46408 0)
(168.098 -0.480313 0)
(151.625 1.11189 0)
(120.463 2.57241 0)
(95.7087 3.53525 0)
(92.9951 3.944 0)
(105.92 4.12041 0)
(121.386 2.96534 0)
(123.325 1.02789 0)
(116.76 -0.752581 0)
(112.057 -3.33576 0)
(112.662 -4.20817 0)
(117.889 -4.23689 0)
(136.167 -2.72303 0)
(170.431 -7.36768 0)
(-2349.29 0.0413572 0)
(-949.585 -23.1442 0)
(58.829 -4.96018 0)
(321.148 -0.309071 0)
(377.373 0.16806 0)
(370.324 -0.331621 0)
(357.202 -0.57922 0)
(340.198 1.05268 0)
(323.231 0.386689 0)
(302.728 -6.27067 0)
(279.571 -6.20053 0)
(218.749 -5.6598 0)
(-15.0067 -2.95381 0)
(-199.815 2.32097 0)
(-194.432 3.13985 0)
(-177.12 3.83219 0)
(-152.715 6.8088 0)
(-127.755 10.849 0)
(-95.2752 11.6392 0)
(-50.3779 13.7689 0)
(4.05613 15.8518 0)
(62.1204 14.635 0)
(117.552 10.7203 0)
(162.662 8.8039 0)
(189.802 2.41016 0)
(209.154 -1.10411 0)
(240.362 -4.21896 0)
(288.977 0.239402 0)
(341.552 5.5541 0)
(383.469 0.59974 0)
(379.903 -4.05333 0)
(268.558 -8.74875 0)
(-18.8933 -11.4853 0)
(-107.323 -10.4885 0)
(-104.372 -5.08829 0)
(-69.8507 -2.35242 0)
(-31.1356 -0.042073 0)
(-1.78255 0.98708 0)
(18.1356 -0.803741 0)
(31.5449 -3.43222 0)
(46.3126 -5.10937 0)
(68.902 -1.7928 0)
(99.6677 3.43237 0)
(135.069 8.4246 0)
(169.299 11.0169 0)
(194.139 11.7421 0)
(204.477 9.11431 0)
(208.11 2.94882 0)
(224.994 -2.22159 0)
(267.037 -3.88638 0)
(312.535 -4.94681 0)
(342.421 -7.44688 0)
(332.039 -10.3498 0)
(212.054 -9.406 0)
(25.9297 -4.27038 0)
(-1.88641 -4.30077 0)
(-9.27149 -6.78393 0)
(2.17542 -8.8112 0)
(18.757 -11.6698 0)
(35.8109 -10.9069 0)
(53.5634 -9.20555 0)
(73.902 -6.38725 0)
(95.198 -4.16662 0)
(114.083 -2.88883 0)
(127.386 -4.03639 0)
(134.365 -7.53981 0)
(138.87 -10.8832 0)
(145.985 -15.4465 0)
(158.984 -15.3446 0)
(174.134 -13.3411 0)
(191.288 -10.5215 0)
(215.412 -9.75077 0)
(254.57 -10.3844 0)
(277.813 -9.4344 0)
(282.194 -8.29538 0)
(253.193 -6.54049 0)
(129.379 -4.138 0)
(24.532 -4.26877 0)
(7.26638 -5.00587 0)
(9.77042 -4.33702 0)
(26.7199 -4.03026 0)
(47.0706 -1.51173 0)
(62.8384 -0.0278145 0)
(76.5802 0.332538 0)
(91.1349 -1.21225 0)
(106.847 -2.73021 0)
(121.218 -5.46086 0)
(131.586 -9.83215 0)
(137.732 -15.2978 0)
(140.922 -21.0943 0)
(145.808 -24.2703 0)
(153.646 -22.7262 0)
(163.79 -19.4443 0)
(177.169 -13.3121 0)
(196.19 -8.02169 0)
(218.855 -4.66751 0)
(225.358 -3.34425 0)
(214.057 -2.03463 0)
(182.514 0.881703 0)
(96.6494 4.00261 0)
(41.9374 7.1899 0)
(40.2356 8.79262 0)
(52.5773 11.1879 0)
(70.3657 12.6618 0)
(88.2347 13.4509 0)
(98.4781 14.4322 0)
(102.933 15.5043 0)
(106.589 15.8872 0)
(112.659 16.9314 0)
(122.75 17.3766 0)
(136.306 17.3015 0)
(150.374 16.2671 0)
(161.299 14.4875 0)
(168.894 12.9665 0)
(175.24 10.64 0)
(184.509 7.92689 0)
(201.944 5.70107 0)
(227.603 4.36443 0)
(237.486 3.25461 0)
(230.542 3.4295 0)
(202.651 4.62295 0)
(131.008 6.00662 0)
(59.3195 7.05234 0)
(46.0433 9.08662 0)
(52.5191 9.11559 0)
(67.867 9.86145 0)
(88.6564 9.4147 0)
(104.807 7.9013 0)
(113.72 5.8764 0)
(119.828 3.49585 0)
(122.9 0.212081 0)
(124.911 -3.23311 0)
(129.458 -6.6728 0)
(138.246 -10.7019 0)
(149.623 -12.9734 0)
(158.12 -12.4046 0)
(164.726 -11.7345 0)
(170.888 -11.4324 0)
(179.18 -11.0556 0)
(190.123 -10.4299 0)
(207.825 -8.76407 0)
(217.521 -7.07126 0)
(214.526 -6.0056 0)
(199.476 -4.71706 0)
(152.139 -4.95688 0)
(86.5773 -6.65203 0)
(69.4973 -6.84485 0)
(71.0229 -6.30751 0)
(78.2867 -5.86391 0)
(93.465 -4.75423 0)
(109.146 -3.11939 0)
(118.496 -1.69025 0)
(123.686 -1.59446 0)
(127.248 -2.98263 0)
(131.115 -5.21743 0)
(136.885 -8.52257 0)
(146.367 -12.2164 0)
(158.399 -16.2849 0)
(167.748 -19.2499 0)
(173.243 -20.0137 0)
(177.821 -20.7432 0)
(185.063 -21.9381 0)
(196.492 -22.9606 0)
(210.911 -23.559 0)
(217.766 -23.4731 0)
(214.543 -23.7203 0)
(197.289 -22.5211 0)
(148.286 -17.7787 0)
(88.5514 -12.321 0)
(75.8944 -9.25333 0)
(78.798 -7.51686 0)
(88.3469 -4.44749 0)
(102.052 -0.858557 0)
(116.462 1.49625 0)
(125.813 2.90037 0)
(131.095 4.08491 0)
(133.398 4.50238 0)
(136.756 4.15195 0)
(140.92 3.47557 0)
(148.688 2.60573 0)
(161.177 1.71612 0)
(174.073 0.642445 0)
(180.442 -0.496589 0)
(182.641 -1.35389 0)
(184.208 -2.25334 0)
(186.466 -2.81034 0)
(192.748 -3.04472 0)
(202.01 -2.63336 0)
(205.456 -1.8989 0)
(201.829 -1.2841 0)
(188.237 -0.43054 0)
(147.898 1.34235 0)
(99.8646 3.20808 0)
(88.9344 4.20716 0)
(90.9741 4.71115 0)
(99.8292 4.8983 0)
(116.857 4.01273 0)
(130.399 2.307 0)
(137.159 0.245977 0)
(139.389 -2.75246 0)
(139.708 -6.1415 0)
(140.686 -9.67136 0)
(143.689 -12.6592 0)
(148.633 -15.4107 0)
(156.083 -17.9992 0)
(167.183 -20.2088 0)
(177.288 -21.8254 0)
(181.949 -23.2952 0)
(184.634 -24.6124 0)
(187.249 -26.1263 0)
(192.48 -27.0737 0)
(200.949 -27.005 0)
(209.498 -26.0433 0)
(213.776 -23.8763 0)
(210.26 -20.8641 0)
(192.432 -16.9627 0)
(145.101 -14.6411 0)
(101.406 -14.6071 0)
(92.2426 -14.4822 0)
(92.4575 -13.7691 0)
(96.4059 -12.6936 0)
(106.64 -11.504 0)
(117.207 -10.9179 0)
(120.806 -10.9792 0)
(122.433 -10.9415 0)
(123.792 -10.7625 0)
(125.929 -10.466 0)
(129.967 -10.0029 0)
(135.962 -9.6325 0)
(145.727 -9.50854 0)
(160.061 -9.53805 0)
(175.897 -9.385 0)
(186.925 -8.66528 0)
(192.348 -7.35973 0)
(196.58 -5.98886 0)
(202.258 -4.56119 0)
(211.476 -3.73929 0)
(219.978 -4.38218 0)
(224.535 -6.39986 0)
(220.667 -9.19024 0)
(196.046 -13.0339 0)
(139.35 -16.8103 0)
(109.668 -18.2954 0)
(107.756 -17.7242 0)
(113.012 -16.4429 0)
(125.056 -13.636 0)
(134.856 -7.44149 0)
(136.2 -1.50267 0)
(134.087 3.78103 0)
(130.816 7.73659 0)
(128.569 10.1164 0)
(128.391 11.7684 0)
(130.143 12.9536 0)
(134.208 13.709 0)
(141.901 13.761 0)
(153.598 12.5996 0)
(167.28 10.4858 0)
(177.632 8.12682 0)
(181.793 6.63902 0)
(182.34 6.14645 0)
(183.224 6.30883 0)
(188.547 6.9234 0)
(198.765 7.85339 0)
(204.552 8.14341 0)
(196.395 7.9572 0)
(172.537 6.88022 0)
(129.323 4.96579 0)
(106.054 3.18752 0)
(100.437 1.97503 0)
(107.771 1.00651 0)
(124.866 0.545276 0)
(136.831 0.889289 0)
(137.677 1.75802 0)
(133.912 2.92208 0)
(129.522 4.1685 0)
(127.861 4.27091 0)
(129 3.71059 0)
(134.102 1.65301 0)
(145.378 -2.23246 0)
(163.346 -7.15391 0)
(180.655 -10.7874 0)
(186.584 -11.0935 0)
(183.021 -9.26954 0)
(179.001 -7.27576 0)
(177.727 -5.68714 0)
(177.497 -3.84625 0)
(172.215 -1.21038 0)
(156.303 1.49163 0)
(124.773 4.64635 0)
(98.983 6.54203 0)
(95.991 6.73386 0)
(108.869 5.78715 0)
(123.52 3.34534 0)
(124.94 -0.953615 0)
(118.185 -4.89915 0)
(114.566 -8.48462 0)
(115.797 -9.93266 0)
(121.067 -9.25156 0)
(135.11 -5.83633 0)
(165.385 -9.39287 0)
(-2349.26 -0.24574 0)
(-848.004 -32.5953 0)
(70.6595 -9.6733 0)
(325.381 -2.56227 0)
(377.181 -2.29581 0)
(372.154 -3.15941 0)
(358.498 -4.15913 0)
(339.67 -3.11907 0)
(317.807 -4.19295 0)
(295.738 -9.35944 0)
(278.908 -9.39938 0)
(221.428 -8.18373 0)
(-6.90729 -4.5069 0)
(-197.36 -0.0410256 0)
(-194.428 0.515797 0)
(-178.042 1.09789 0)
(-152.084 4.52146 0)
(-124.812 8.35327 0)
(-91.6896 9.19998 0)
(-48.1435 12.6593 0)
(4.37833 15.8782 0)
(60.0873 14.6097 0)
(113.113 9.90687 0)
(157.129 7.81613 0)
(186.411 1.06036 0)
(210.648 -1.92369 0)
(246.037 -5.04892 0)
(295.334 -0.252385 0)
(344.076 4.40837 0)
(376.657 -0.603226 0)
(369.774 -4.89732 0)
(259.955 -9.16655 0)
(-21.6968 -11.299 0)
(-105.307 -9.52264 0)
(-97.8301 -5.22801 0)
(-65.1546 -2.78554 0)
(-29.8402 -0.882284 0)
(-4.83643 0.552309 0)
(12.263 -1.42277 0)
(27.4594 -4.11054 0)
(47.3449 -4.68279 0)
(74.071 -0.100935 0)
(106.06 5.38165 0)
(139.451 9.10889 0)
(169.001 10.6619 0)
(188.448 10.3802 0)
(195.886 6.30451 0)
(200.024 0.975455 0)
(218.041 -3.58472 0)
(259.939 -5.79908 0)
(306.998 -6.88927 0)
(335.826 -9.08381 0)
(327.001 -11.1348 0)
(216.834 -9.48799 0)
(28.6939 -4.61349 0)
(-6.17609 -5.14518 0)
(-15.7034 -8.3335 0)
(-3.27754 -10.686 0)
(17.7218 -12.2327 0)
(38.1293 -10.5848 0)
(57.6481 -8.31531 0)
(78.7843 -5.14125 0)
(98.942 -3.2423 0)
(113.888 -2.64335 0)
(122.665 -5.19003 0)
(126.911 -10.4219 0)
(133.385 -14.7365 0)
(146.112 -17.8213 0)
(162.165 -16.7317 0)
(178.135 -15.0504 0)
(193.975 -12.2728 0)
(216.594 -10.3621 0)
(256.122 -11.5694 0)
(282.011 -12.2784 0)
(286.146 -11.5944 0)
(258.802 -10.3188 0)
(136.034 -7.75031 0)
(25.6554 -7.15509 0)
(9.31699 -7.97632 0)
(12.8597 -7.29665 0)
(30.1231 -6.99919 0)
(50.18 -4.17516 0)
(65.3013 -2.029 0)
(78.6707 -1.35348 0)
(92.7516 -2.56912 0)
(106.652 -4.4421 0)
(118.362 -7.8365 0)
(126.193 -13.0697 0)
(131.866 -18.8628 0)
(137.014 -24.5722 0)
(146.225 -26.908 0)
(156.922 -25.8754 0)
(169.66 -24.0742 0)
(184.284 -18.9723 0)
(202.822 -13.5024 0)
(224.336 -9.04044 0)
(230.646 -5.64789 0)
(218.831 -2.26127 0)
(187.429 2.6787 0)
(101.327 6.49172 0)
(45.0991 9.99811 0)
(43.2798 11.4019 0)
(53.6093 13.75 0)
(70.7088 15.2606 0)
(87.9812 16.0694 0)
(97.4764 17.1628 0)
(102.11 18.4787 0)
(106.637 18.8452 0)
(112.994 20.1266 0)
(122.54 21.0305 0)
(135.07 21.2541 0)
(148.03 20.9136 0)
(158.153 19.5932 0)
(164.873 17.3503 0)
(170.5 14.4145 0)
(179.565 11.4196 0)
(197.984 8.8471 0)
(224.45 6.92423 0)
(234.441 5.32419 0)
(229.332 5.22412 0)
(204.167 5.65411 0)
(133.192 6.09316 0)
(62.6038 6.64052 0)
(49.2321 8.2777 0)
(53.6767 8.22644 0)
(67.49 8.62124 0)
(86.7578 8.23094 0)
(101.797 6.46231 0)
(109.834 3.46923 0)
(114.572 0.345505 0)
(117.376 -3.61549 0)
(119.456 -7.44887 0)
(124.875 -9.75043 0)
(135.407 -11.8224 0)
(149.02 -13.1677 0)
(159.97 -12.5778 0)
(166.759 -12.0873 0)
(173.071 -11.8027 0)
(181.051 -11.7428 0)
(193.682 -11.3908 0)
(212.192 -9.69088 0)
(220.441 -8.13745 0)
(216.986 -6.8107 0)
(201.158 -5.07434 0)
(150.484 -5.07397 0)
(84.81 -6.74059 0)
(70.3286 -6.23233 0)
(72.634 -5.49608 0)
(80.9198 -4.78467 0)
(96.3894 -3.11933 0)
(111.989 -1.76029 0)
(120.178 -1.24572 0)
(123.89 -1.83893 0)
(125.167 -4.12142 0)
(126.856 -7.39138 0)
(131.154 -11.4547 0)
(140.024 -15.5597 0)
(152.469 -20.3007 0)
(164.14 -23.175 0)
(171.809 -24.1201 0)
(177.231 -24.1025 0)
(184.062 -23.9128 0)
(195.88 -23.8913 0)
(212.207 -23.7867 0)
(219.395 -23.2082 0)
(216.396 -22.483 0)
(200.864 -21.7611 0)
(155.706 -18.2179 0)
(93.8309 -13.4346 0)
(78.485 -10.4451 0)
(81.1667 -9.07797 0)
(91.1013 -6.5191 0)
(104.751 -2.57134 0)
(117.903 0.272406 0)
(126.326 2.36256 0)
(130.614 3.99808 0)
(132.35 4.54017 0)
(135.152 4.0268 0)
(138.719 3.31644 0)
(146.085 2.45611 0)
(158.649 1.57735 0)
(171.679 0.408498 0)
(177.321 -1.31881 0)
(179.519 -2.33805 0)
(181.439 -3.17433 0)
(184.368 -3.52917 0)
(191.503 -3.24526 0)
(202.104 -2.29648 0)
(205.832 -0.533536 0)
(202.505 1.12379 0)
(189.87 3.26161 0)
(150.985 5.16545 0)
(101.616 6.32231 0)
(89.9758 7.16233 0)
(91.659 7.41138 0)
(99.7016 7.58377 0)
(114.996 6.84636 0)
(126.106 4.55198 0)
(131.341 0.83611 0)
(132.156 -3.78708 0)
(132.323 -8.84624 0)
(133.821 -13.318 0)
(137.741 -16.6462 0)
(143.697 -19.2881 0)
(152.928 -21.2181 0)
(166.255 -22.3102 0)
(177.513 -22.6493 0)
(181.36 -23.0754 0)
(183.411 -24.1017 0)
(186.102 -25.462 0)
(191.948 -27.2396 0)
(200.834 -28.7387 0)
(210.694 -29.1656 0)
(215.545 -28.3996 0)
(213.224 -27.2698 0)
(196.691 -25.8277 0)
(148.14 -24.538 0)
(102.943 -23.7827 0)
(94.3009 -22.7803 0)
(94.9116 -21.3623 0)
(99.6399 -19.1198 0)
(109.992 -16.269 0)
(119.473 -14.1447 0)
(122.864 -13.0381 0)
(124.111 -12.0548 0)
(125.174 -11.2214 0)
(127.064 -10.3383 0)
(130.914 -9.59498 0)
(136.492 -9.23349 0)
(145.57 -9.30149 0)
(159.574 -9.44779 0)
(175.752 -9.16452 0)
(187.341 -8.25498 0)
(193.373 -6.96284 0)
(198 -5.74797 0)
(203.725 -4.64485 0)
(211.487 -4.36686 0)
(217.557 -5.34301 0)
(220.689 -7.54578 0)
(215.137 -10.6378 0)
(188.554 -14.9779 0)
(133.759 -19.6945 0)
(108.34 -21.578 0)
(107.696 -21.7915 0)
(113.818 -21.5394 0)
(128.821 -20.7235 0)
(142.233 -16.7666 0)
(144.813 -10.3906 0)
(142.981 -3.65499 0)
(137.086 3.44391 0)
(132.978 8.66605 0)
(131.194 11.7025 0)
(131.827 13.5595 0)
(134.66 14.7076 0)
(140.975 14.7645 0)
(151.54 13.789 0)
(164.394 11.9605 0)
(174.969 9.71582 0)
(180.271 7.79439 0)
(181.992 6.97899 0)
(183.87 7.16065 0)
(190.084 7.91485 0)
(199.987 8.8803 0)
(204.91 9.31529 0)
(195.76 9.26756 0)
(170.512 8.17809 0)
(126.455 6.33324 0)
(104.238 4.72728 0)
(99.2295 3.77606 0)
(107.39 3.05777 0)
(125.346 2.74759 0)
(137.919 2.69353 0)
(139.272 3.08343 0)
(135.887 3.75706 0)
(130.893 4.86646 0)
(127.659 5.07517 0)
(127.502 4.33652 0)
(130.25 2.39796 0)
(138.937 -0.698894 0)
(155.965 -5.17578 0)
(176.576 -10.1731 0)
(187.469 -12.5073 0)
(185.846 -11.3096 0)
(181.562 -9.28814 0)
(180.371 -7.39128 0)
(181.904 -5.28979 0)
(178.533 -1.68727 0)
(164.936 2.26816 0)
(133.104 7.37783 0)
(104.648 10.5359 0)
(99.3095 10.1136 0)
(110.875 6.78542 0)
(126.456 1.23152 0)
(129.173 -4.62012 0)
(123.223 -9.19539 0)
(120.065 -12.2801 0)
(120.003 -14.5415 0)
(123.856 -13.4924 0)
(134.298 -10.2354 0)
(161.316 -11.1434 0)
(-2349.04 -0.477042 0)
(-631.496 -49.7738 0)
(85.6877 -9.61611 0)
(329.535 -2.95714 0)
(375.947 -4.47234 0)
(372.588 -5.53636 0)
(358.585 -7.365 0)
(337.686 -6.96265 0)
(312.29 -7.43262 0)
(290.309 -11.8589 0)
(278.875 -11.2448 0)
(225.549 -10.6904 0)
(0.0901841 -8.72186 0)
(-195.491 -6.13959 0)
(-194.444 -5.78781 0)
(-178.604 -5.51544 0)
(-150.971 -2.2554 0)
(-121.002 1.31342 0)
(-86.833 2.6761 0)
(-44.712 6.89389 0)
(4.98206 10.9521 0)
(57.9794 10.5315 0)
(108.515 6.08732 0)
(151.543 4.21602 0)
(183.415 -1.07046 0)
(212.23 -3.15639 0)
(251.256 -5.34076 0)
(301.236 -1.49876 0)
(346.078 2.40676 0)
(370.305 -1.99825 0)
(361.791 -4.61996 0)
(253.558 -7.15578 0)
(-22.8558 -8.63994 0)
(-102.503 -6.92782 0)
(-91.9589 -3.69119 0)
(-61.7339 -2.21189 0)
(-29.6275 -1.66543 0)
(-7.73857 -0.840311 0)
(7.84414 -2.44507 0)
(25.2435 -3.98362 0)
(48.9304 -3.52284 0)
(78.3648 0.069307 0)
(110.266 4.16098 0)
(140.94 6.09964 0)
(165.607 5.62848 0)
(180.589 3.69588 0)
(186.654 -1.52153 0)
(192.6 -5.6825 0)
(211.712 -7.37912 0)
(253.495 -7.48136 0)
(302.664 -6.35553 0)
(329.272 -8.27584 0)
(322.332 -9.23963 0)
(220.105 -8.55016 0)
(30.395 -5.20089 0)
(-11.4597 -6.31256 0)
(-21.3916 -8.56741 0)
(-6.85045 -9.8424 0)
(18.0315 -9.69335 0)
(40.7653 -7.38107 0)
(61.5458 -4.52312 0)
(83.0861 -1.8298 0)
(101.199 -1.17956 0)
(111.664 -2.42914 0)
(115.994 -5.95748 0)
(118.94 -11.932 0)
(129.934 -15.6002 0)
(147.446 -16.2538 0)
(166.039 -15.4962 0)
(183.088 -13.0456 0)
(197.949 -9.97008 0)
(218.905 -8.77406 0)
(257.335 -8.58955 0)
(286.023 -11.1475 0)
(289.498 -12.1078 0)
(263.543 -12.194 0)
(143.332 -10.2298 0)
(27.7982 -8.89697 0)
(11.8752 -9.56817 0)
(16.6937 -9.26461 0)
(34.555 -9.23463 0)
(54.7353 -7.0058 0)
(68.7701 -4.94631 0)
(81.4081 -4.12609 0)
(94.5136 -5.14195 0)
(106.141 -6.65913 0)
(115.17 -9.81826 0)
(120.868 -14.8669 0)
(126.457 -19.5688 0)
(134.779 -24.2865 0)
(147.082 -25.1308 0)
(159.851 -24.4615 0)
(174.399 -22.9549 0)
(189.945 -19.6882 0)
(209.37 -16.5786 0)
(230.908 -12.8921 0)
(237.299 -8.70741 0)
(225.89 -3.75075 0)
(194.082 2.18642 0)
(106.842 6.2937 0)
(48.8333 10.0969 0)
(46.79 11.6724 0)
(54.8991 14.4681 0)
(70.678 16.0492 0)
(87.4194 16.3379 0)
(96.6997 17.6943 0)
(101.542 18.8715 0)
(106.538 19.6378 0)
(113.413 21.3499 0)
(122.916 22.8708 0)
(134.643 23.4408 0)
(146.476 23.0887 0)
(155.218 21.878 0)
(160.693 19.6261 0)
(165.578 16.6676 0)
(174.687 13.9421 0)
(194.015 11.8311 0)
(221.364 10.2636 0)
(231.585 8.52627 0)
(227.87 7.72476 0)
(204.435 7.06266 0)
(132.819 5.39287 0)
(63.5161 3.47927 0)
(50.5037 4.03798 0)
(54.0037 4.06911 0)
(67.5794 4.24638 0)
(86.6527 4.03885 0)
(99.4584 2.22495 0)
(106.278 -0.338556 0)
(109.242 -3.06928 0)
(112.084 -6.30324 0)
(115.194 -9.41586 0)
(122.568 -10.5942 0)
(135.05 -11.4308 0)
(149.821 -11.3412 0)
(161.595 -10.0125 0)
(168.647 -8.71458 0)
(174.549 -8.25173 0)
(182.795 -8.57797 0)
(197.028 -8.58344 0)
(215.775 -7.83444 0)
(222.751 -7.17439 0)
(219.462 -6.28556 0)
(203.244 -4.94061 0)
(149.696 -4.59768 0)
(84.2639 -5.70164 0)
(71.7338 -4.65414 0)
(74.8768 -3.44096 0)
(84.0956 -1.91716 0)
(99.2526 -0.0446145 0)
(113.847 0.391638 0)
(120.5 -0.521479 0)
(122.173 -2.50453 0)
(121.217 -5.56525 0)
(121.336 -9.53163 0)
(125.265 -12.9147 0)
(134.231 -15.9926 0)
(147.781 -18.8361 0)
(161.462 -20.5402 0)
(171.057 -21.28 0)
(177.415 -20.5749 0)
(184.203 -19.6173 0)
(195.829 -19.1143 0)
(212.932 -19.1664 0)
(220.758 -19.2601 0)
(217.974 -18.925 0)
(203.202 -17.5557 0)
(161.401 -14.3045 0)
(98.2546 -10.4466 0)
(80.2603 -8.01918 0)
(82.668 -7.05419 0)
(92.3743 -5.91023 0)
(106.236 -3.32586 0)
(119.1 -1.13596 0)
(126.812 0.854906 0)
(130.152 2.68983 0)
(131.007 3.43132 0)
(133.228 3.26861 0)
(136.485 2.83617 0)
(143.651 2.27153 0)
(156.129 1.79288 0)
(168.645 0.873567 0)
(173.741 -0.742728 0)
(176.239 -1.69871 0)
(178.631 -2.38631 0)
(182.486 -2.52874 0)
(190.747 -1.94023 0)
(203.006 -0.381841 0)
(207.413 2.35716 0)
(204.545 5.09326 0)
(192.505 8.30513 0)
(152.532 9.94914 0)
(101.616 9.84064 0)
(89.7893 9.85749 0)
(91.3733 9.46038 0)
(98.513 8.76847 0)
(111.754 6.97563 0)
(120.328 3.39032 0)
(123.881 -1.08655 0)
(124.05 -5.68478 0)
(124.735 -9.9616 0)
(127.187 -13.1835 0)
(132.344 -15.7396 0)
(139.64 -18.1356 0)
(151.24 -19.7953 0)
(166.265 -20.1622 0)
(177.06 -20.1262 0)
(180.431 -20.1919 0)
(181.527 -20.849 0)
(183.739 -22.3791 0)
(189.148 -24.1331 0)
(199.089 -25.9681 0)
(210.587 -26.9931 0)