/*--------------------------------*- C++ -*----------------------------------*\
| =========                 |                                                 |
| \\      /  F ield         | OpenFOAM: The Open Source CFD Toolbox           |
|  \\    /   O peration     | Version:  2306                                  |
|   \\  /    A nd           | Website:  www.openfoam.com                      |
|    \\/     M anipulation  |                                                 |
\*---------------------------------------------------------------------------*/
FoamFile
{
    version     2.0;
    format      ascii;
    arch        "LSB;label=32;scalar=64";
    class       volScalarField;
    location    "0.13";
    object      p;
}
// * * * * * * * * * * * * * * * * * * * * * * * * * * * * * * * * * * * * * //

dimensions      [1 -1 -2 0 0 0 0];

internalField   nonuniform List<scalar> 
6000
(
3.73931e+07
530003
96165.4
92502.1
94015.9
106609
124068
147311
175153
203474
218848
221683
222034
222098
221582
216759
184148
123071
107436
107882
112156
118587
125383
132401
139802
147434
154996
162260
169403
176834
185259
195551
207737
217260
219977
219517
198963
148837
129636
128778
131690
136869
141868
146082
150074
154161
158286
162336
166227
169878
173189
176359
180289
187326
198871
205406
206955
197487
164861
143027
141223
142489
146277
150639
154035
156760
159314
161951
164788
167763
170691
173333
175679
178225
182284
189634
196948
198427
196465
181865
155504
146798
146522
148188
151748
155566
158166
159825
161255
163021
165397
168232
171013
173250
174919
176545
179346
185007
191527
193055
192178
183656
162227
149755
148869
149650
152096
155666
158543
160149
161185
162298
163909
166144
168667
170874
172517
173860
175553
178943
184791
188979
189325
187411
176450
159796
155085
155280
156612
159565
162897
164941
166055
167039
168290
170102
172631
175289
177126
178147
178897
179867
181770
184255
185050
184719
181245
170041
158042
155668
155917
157199
159947
163320
165505
166516
167223
168046
169261
171143
173678
176185
177902
179009
180076
181636
184260
187038
187793
187215
182008
169562
161131
160237
160691
162336
164494
165910
166212
166039
165723
165771
166069
166788
168019
169706
171413
172851
174289
176258
179274
182865
184295
183621
179001
169358
162376
161437
162530
166068
170324
172093
171822
171093
170290
169841
169558
169660
170334
171498
172970
174972
178217
182408
183548
182231
175869
165438
159564
159213
161014
165267
168887
169266
168559
167823
167613
168181
169832
172255
175326
179753
185225
186360
182334
171343
159420
156156
157266
162657
167768
168791
167910
167377
167975
170738
175678
181435
185653
184146
175503
164544
157958
159506
165832
175582
179660
178149
172152
164895
163262
164354
169234
174779
175893
174583
171685
169072
168492
168954
170908
172047
171849
170999
170065
169894
170097
170638
170733
170531
170095
169922
170003
170406
170920
171009
170875
170433
169910
169778
169823
170052
170402
170613
170657
170652
170648
170656
170649
170592
3.74066e+07
530601
96143.2
92779.3
94419.5
106695
123703
146858
174744
203271
218844
221784
222031
222064
221603
217004
184999
123411
107252
107753
112107
118620
125453
132432
139745
147298
154816
162160
169479
177094
185687
196091
208382
217984
220549
219843
198864
148348
129350
128656
131634
136825
141745
145880
149800
153798
157883
161966
165967
169818
173423
176971
181258
188496
199987
206229
207349
197515
164378
142762
141068
142424
146280
150662
154022
156654
159125
161746
164632
167720
170777
173520
175922
178486
182597
190130
197691
199195
197259
182759
156178
147161
146825
148425
151917
155703
158307
159984
161425
163184
165527
168319
171060
173279
174965
176622
179440
185099
191805
193511
192828
184581
163320
150552
149608
150331
152712
156228
159086
160703
161773
162913
164532
166754
169250
171418
173012
174320
176002
179374
185179
189286
189632
187633
176564
159885
155210
155415
156753
159714
163067
165083
166128
167017
168151
169858
172255
174797
176562
177556
178340
179450
181723
184812
186030
185747
182221
170749
158334
155802
156004
157249
159952
163292
165425
166370
167014
167765
168898
170696
173165
175630
177329
178436
179493
181037
183630
186338
187029
186423
181214
168829
160488
159674
160221
162049
164552
166180
166584
166422
166039
165976
166194
166855
168009
169640
171281
172651
174014
175893
178821
182336
183700
183010
178339
168744
161859
160999
162154
165692
169967
171836
171608
170948
170292
169938
169777
170038
170788
171859
173130
174962
178079
182162
183246
181911
175563
165127
159224
158883
160709
165032
168798
169308
168676
168062
167830
168365
169932
172231
175134
179308
184594
186184
182399
171896
159528
156087
157285
162826
168065
169001
168241
167949
168715
171545
176441
181682
184920
182957
174585
164588
158424
159877
165947
175584
179557
178099
172235
165168
163525
164483
169138
174466
175421
174021
171101
168849
168563
169453
171478
172196
171788
170651
169726
169648
170031
170817
170977
170729
170178
169883
169938
170326
170889
171022
170906
170483
169950
169805
169851
170082
170430
170608
170614
170582
170570
170593
170611
170566
3.73883e+07
552983
97092.8
93464
94806.9
106520
122897
146005
174041
202940
218814
221885
222017
222036
221650
217335
186164
124051
107019
107637
112121
118753
125610
132491
139613
146962
154373
161793
169305
177228
186125
196870
209526
219173
221470
220418
198778
147594
129060
128640
131719
136925
141729
145639
149342
153199
157256
161435
165640
169745
173630
177462
182113
189794
201480
207409
208026
197495
163459
142342
140879
142347
146285
150665
153938
156444
158813
161424
164416
167689
170917
173748
176170
178718
182782
190325
198323
199903
198193
184195
157303
147688
147304
148803
152200
155953
158554
160250
161713
163455
165730
168429
171090
173276
174976
176695
179525
185165
192017
193863
193319
185720
164983
151717
150652
151268
153552
157012
159880
161549
162671
163840
165459
167647
170085
172179
173703
174972
176668
180088
185863
189782
190089
187898
176627
159983
155428
155674
157027
159979
163280
165189
166121
166910
167975
169603
171827
174108
175702
176654
177455
178684
181291
185125
187042
187014
183859
172275
158966
156040
156180
157366
159994
163280
165352
166219
166792
167468
168501
170172
172514
174894
176560
177665
178747
180349
182981
185611
186187
185458
180118
167792
159620
158877
159516
161532
164498
166456
166993
166900
166530
166432
166616
167178
168178
169674
171247
172561
173851
175627
178427
181801
183008
182287
177546
167927
161091
160228
161364
164896
169249
171310
171143
170560
170071
169845
169886
170413
171420
172575
173748
175367
178223
182083
183005
181556
175158
164689
158765
158428
160259
164648
168620
169341
168772
168213
168001
168591
170166
172350
174984
178669
183597
185611
182084
172907
159855
155980
157338
163229
168592
168970
168278
168208
169426
172995
178155
182380
183893
181208
172621
164084
159117
160849
166309
175379
179518
178035
172276
165518
163975
165040
169954
175099
175279
173446
170199
168369
168335
169942
172335
172732
171987
170335
169198
169161
169818
170954
171271
171046
170362
169862
169864
170203
170823
171031
170945
170554
170006
169841
169888
170131
170480
170618
170598
170522
170472
170480
170524
170511
3.74251e+07
528258
96793.9
93156.4
94267.1
105790
122156
145279
173344
202443
218650
221928
221933
221999
221746
217613
187247
124590
106680
107468
112134
118928
125819
132539
139350
146373
153590
161058
168845
177204
186614
197784
210834
220527
222481
220925
198403
146550
128628
128618
131825
137040
141694
145434
148947
152689
156759
161081
165518
169878
174018
178096
183050
191219
203241
208904
208928
197543
162417
141862
140670
142298
146351
150767
153985
156388
158642
161193
164237
167634
171004
173976
176477
179032
182979
190374
198786
200603
199164
186077
158985
148419
147995
149377
152655
156341
158908
160596
162063
163773
165973
168563
171132
173293
175042
176820
179626
185159
192155
194324
193993
187178
167183
153249
152028
152559
154752
158166
161012
162667
163804
165006
166625
168766
171113
173093
174516
175725
177430
180914
186701
190301
190522
188092
176577
160008
155580
155900
157260
160175
163418
165248
166064
166718
167634
169050
170973
172995
174537
175561
176477
177888
180780
185179
187701
187889
185277
174252
160128
156467
156472
157539
160020
163178
165147
165936
166445
167062
168033
169623
171787
173923
175402
176406
177449
179083
181792
184378
184877
184114
178849
166803
158834
158175
158908
161040
164286
166553
167247
167246
167004
166989
167251
167813
168695
169992
171390
172591
173804
175477
178133
181336
182376
181604
176757
167041
160215
159293
160335
163680
168002
170338
170340
169883
169570
169494
169821
170731
172026
173251
174316
175706
178270
181927
182725
181212
174917
164440
158340
157967
159763
164201
168360
169298
168802
168319
168148
168755
170278
172317
174650
177854
182258
184716
181810
173847
160808
156272
157523
163738
169289
169209
168335
168574
170259
174652
180298
182931
182290
178597
169853
163234
160236
162343
166714
174563
179218
177595
172172
165600
163860
164899
170328
175710
175546
173259
169457
167706
167934
170117
172943
173303
172375
170191
168759
168726
169560
171036
171526
171337
170580
169868
169822
170110
170767
171057
170993
170625
170057
169875
169924
170178
170523
170621
170580
170463
170362
170352
170407
170456
3.74652e+07
506960
96267.7
92763.5
93649.5
105289
121832
144952
172760
201896
218510
222013
222031
222303
222235
218053
187893
124682
106157
107116
112011
119008
125937
132461
138902
145541
152524
159992
168054
176901
186846
198566
211987
221761
223385
221284
197882
145468
128206
128590
131988
137222
141765
145364
148738
152408
156510
160942
165511
169990
174228
178454
183713
192359
204713
210289
209790
197710
161599
141402
140439
142188
146340
150774
153954
156287
158469
160978
164009
167445
170910
174003
176622
179228
183045
190231
198880
200989
199755
187897
160913
149117
148680
149941
153121
156751
159277
160940
162404
164105
166261
168770
171273
173376
175106
176893
179646
185023
192191
194696
194539
188475
169334
154735
153295
153777
155904
159266
162120
163790
164919
166085
167622
169638
171848
173711
175052
176227
177961
181505
187228
190603
190735
188097
176354
159922
155635
156008
157355
160171
163318
165106
165849
166397
167145
168283
169891
171724
173286
174441
175527
177145
180261
184967
187845
188109
185895
175787
161406
157077
156986
157916
160136
163012
164779
165478
165957
166536
167420
168845
170788
172681
173979
174880
175881
177562
180420
183078
183600
182911
177894
166252
158355
157690
158429
160548
163915
166397
167282
167388
167323
167460
167912
168632
169616
170842
171993
172955
174001
175572
178158
181270
182091
181202
176145
166188
159399
158442
159346
162374
166453
168901
169048
168765
168699
168919
169547
170735
172279
173633
174641
175835
178140
181754
182786
181356
175154
164529
158144
157678
159376
163853
168201
169289
168820
168374
168207
168758
170173
172084
174206
177060
181061
184053
181721
174913
162252
157078
158080
164597
170186
169508
168460
169039
171462
176117
181561
182814
180367
174658
167285
162581
161985
164419
167483
173538
178931
177118
172358
165619
163354
164301
170107
176297
176279
173764
169236
167032
167333
169821
173110
173672
172746
170284
168533
168487
169353
171044
171698
171539
170772
169912
169821
170073
170732
171073
171018
170662
170091
169902
169956
170218
170553
170627
170567
170411
170265
170241
170291
170398
3.76312e+07
395644
94491.5
92073.6
93371
105335
121880
144758
172255
201382
218297
221991
222098
222545
222528
218041
187652
124272
105658
106813
111876
118999
125928
132266
138404
144677
151387
158768
166986
176198
186630
198826
212636
222498
223842
221294
197024
144295
127742
128517
132152
137473
141952
145415
148710
152360
156494
160994
165623
170126
174391
178697
184110
192990
205646
211368
210505
198034
161252
141057
140211
142044
146285
150724
153887
156201
158364
160824
163761
167101
170519
173632
176357
179095
182896
189896
198706
201122
199957
189342
162791
149606
149188
150343
153448
157042
159540
161178
162648
164357
166504
169025
171515
173574
175219
176937
179601
184817
192066
194860
194727
189266
171021
155880
154227
154671
156710
160062
162948
164620
165734
166865
168336
170251
172367
174169
175488
176697
178505
182114
187674
190707
190700
187877
175993
159721
155524
155884
157148
159799
162821
164563
165231
165670
166264
167220
168692
170508
172166
173443
174630
176340
179562
184468
187466
187652
185718
176482
162224
157500
157454
158390
160494
163088
164555
165093
165473
165955
166718
167901
169525
171175
172391
173300
174354
176156
179233
182053
182654
182083
177345
165978
158087
157404
158135
160185
163471
166078
167151
167392
167544
167857
168543
169497
170727
172080
173161
173919
174730
176122
178578
181555
182195
181152
175782
165463
158763
157809
158570
161230
164964
167341
167508
167299
167370
167853
168873
170465
172246
173668
174649
175699
177828
181485
183030
181857
176017
165267
158352
157707
159298
163705
168163
169367
168857
168336
168089
168496
169761
171621
173742
176394
180121
183509
181876
176141
164117
158089
158656
165287
170731
169460
168247
168952
172444
177316
181333
181437
177711
170071
165219
162993
164316
166775
168731
173063
178624
177465
172871
166096
163074
163442
169334
176620
177146
174714
169573
166525
166681
169124
172869
173816
173070
170653
168574
168458
169221
170949
171762
171643
170928
170003
169859
170069
170692
171063
171015
170679
170120
169931
169985
170242
170560
170616
170543
170356
170186
170168
170222
170361
3.77619e+07
315276
93827
92316.5
93746.5
105651
121879
144426
171818
201167
218158
221865
222140
222693
222607
217709
186901
123568
105206
106573
111786
118979
125881
132079
137932
143910
150404
157673
165970
175437
186237
198778
212844
222753
223855
220891
195875
143185
127351
128481
132373
137828
142282
145652
148859
152465
156603
161119
165744
170224
174478
178809
184280
193190
205986
211971
210895
198452
161391
140856
140039
141888
146168
150631
153801
156129
158283
160666
163445
166576
169816
172894
175743
178664
182507
189350
198198
200972
199791
190292
164349
149821
149368
150476
153527
157125
159615
161236
162726
164501
166707
169227
171687
173723
175339
176986
179549
184558
191726
194722
194542
189521
172075
156500
154626
155097
157071
160378
163285
164951
166010
167084
168503
170375
172484
174323
175699
176979
178868
182510
187816
190519
190360
187415
175484
159386
155205
155491
156613
159036
161903
163618
164265
164666
165223
166179
167680
169531
171228
172537
173740
175429
178576
183417
186577
186778
185092
176398
162382
157550
157588
158613
160892
163335
164448
164801
165019
165351
165946
166894
168272
169804
171056
172054
173201
175120
178391
181371
182053
181560
177024
165922
158011
157293
157998
159997
163191
165762
166949
167381
167729
168247
169116
170306
171785
173302
174467
175267
176101
177462
179767
182431
182689
181379
175575
164759
158176
157254
157910
160294
163730
166046
166214
165983
166036
166565
167770
169650
171763
173412
174417
175421
177476
181163
183352
182535
177299
166672
159063
158152
159569
163774
168178
169405
168820
168134
167751
167935
169081
170986
173204
175809
179366
183126
182430
177596
166404
159248
159260
165239
170578
169081
167628
168245
173020
178194
180533
179246
172659
166389
164114
163979
165936
168053
169530
173172
178758
178490
173677
166762
162950
162526
167995
176463
177860
175768
170392
166285
166190
168295
172330
173801
173301
171108
168775
168519
169139
170803
171773
171704
171072
170110
169896
170062
170621
171014
170977
170683
170164
169973
170020
170257
170544
170582
170501
170310
170159
170153
170215
170359
3.76474e+07
469443
93387.2
92603.1
93987.6
105737
121787
144261
171786
201277
217989
221580
222111
222780
222646
217273
185740
122772
105026
106534
111873
119139
126013
132073
137747
143544
149857
157021
165314
174867
185797
198440
212533
222359
223328
220020
194497
142327
127201
128581
132647
138186
142658
146033
149173
152738
156855
161332
165893
170307
174510
178805
184225
193032
205867
212143
210964
198892
161957
140796
139943
141762
146052
150535
153740
156115
158275
160594
163220
166113
169135
172107
174990
177999
181845
188528
197389
200569
199344
190718
165440
149805
149217
150344
153348
156944
159452
161076
162580
164411
166712
169335
171855
173878
175451
177047
179546
184336
191262
194269
193982
189266
172478
156606
154508
155021
156934
160200
163124
164783
165793
166802
168167
170031
172195
174153
175660
177053
179010
182592
187550
189926
189644
186657
174777
158823
154582
154727
155688
157894
160649
162452
163233
163745
164395
165409
166922
168764
170464
171780
172966
174592
177621
182335
185417
185543
183950
175795
162040
157154
157267
158407
161002
163591
164581
164760
164768
164909
165324
166138
167396
168880
170162
171214
172417
174422
177849
180972
181709
181253
176839
165913
157988
157259
157951
159914
163047
165638
166886
167471
167967
168644
169617
170955
172610
174261
175522
176461
177502
179156
181619
184006
183944
182221
175675
164167
157781
156868
157389
159558
162802
165126
165390
165144
165112
165527
166672
168580
170814
172681
173934
175085
177170
180889
183780
183309
178794
168480
160120
158815
159982
163936
168196
169349
168674
167790
167274
167274
168290
170245
172637
175344
178884
182906
183333
179153
168909
160308
159395
164231
169408
168181
166701
167516
173046
178585
178986
176221
169431
165380
164312
165016
166535
167615
169411
173485
179594
179879
174642
167234
162718
161634
166608
175788
178359
176684
171367
166340
165950
167656
171706
173696
173419
171495
169000
168583
169080
170651
171787
171773
171233
170237
169914
170027
170503
170922
170908
170680
170230
170035
170068
170267
170511
170539
170465
170294
170168
170165
170238
170378
3.77476e+07
402604
93326.7
93019.5
94348.8
105905
121742
144331
172199
201842
218120
221318
222053
222746
222479
216674
184492
122168
105212
106804
112263
119624
126504
132477
138037
143713
149937
157014
165205
174648
185503
198044
211935
221373
222167
218715
193061
141743
127215
128726
132906
138534
143053
146426
149607
153173
157238
161624
166069
170382
174521
178768
184088
192661
205353
211885
210690
199228
162837
140826
139926
141670
145911
150372
153577
155969
158170
160497
163029
165753
168605
171475
174345
177383
181187
187635
196361
199884
198643
190705
166088
149553
148754
149907
152859
156486
159031
160653
162165
164034
166417
169155
171793
173910
175551
177199
179626
184163
190719
193585
193144
188627
172359
156327
154061
154627
156475
159663
162577
164232
165206
166172
167518
169411
171664
173763
175424
176930
178905
182328
186861
188936
188544
185589
173980
158181
153789
153840
154682
156767
159546
161544
162489
163084
163787
164828
166346
168190
169899
171231
172424
174033
176999
181543
184449
184473
182865
174792
161319
156704
156889
158058
160738
163661
164882
165026
164888
164894
165156
165809
166920
168341
169630
170716
171966
174045
177592
180797
181537
181095
176771
165937
158002
157245
157894
159808
162954
165660
166984
167656
168240
168985
170000
171407
173171
174937
176339
177435
178670
180639
183305
185510
185377
183475
176213
163951
157796
156896
157258
159158
162215
164573
165014
164809
164711
164941
165887
167647
169877
171927
173419
174735
176825
180475
184154
183945
180251
170399
161281
159385
160222
163791
167951
169114
168411
167406
166825
166673
167591
169614
172202
175076
178689
182909
184390
180744
171392
161384
159293
163036
167955
167044
165747
166551
172022
178937
179256
175830
169176
165580
164537
165073
166093
167312
169873
174751
181132
181376
175672
167439
162331
160818
165472
175058
178700
177363
172184
166515
165779
167266
171312
173653
173505
171757
169140
168564
168988
170503
171803
171855
171398
170377
169909
169963
170347
170794
170827
170672
170312
170111
170126
170275
170471
170496
170433
170290
170196
170199
170287
170403
3.78615e+07
273686
94287.4
93227.1
94456.5
106053
122026
144868
173132
202745
218176
221024
221904
222510
221965
215814
183199
121689
105530
107273
112814
120225
127139
133160
138766
144490
150724
157706
165721
174934
185517
197789
211340
220258
220811
217215
191547
141198
127203
128740
132986
138730
143381
146876
150129
153709
157729
162008
166318
170519
174588
178789
184035
192333
204674
211388
210138
199427
163891
140934
139917
141594
145761
150186
153359
155732
157931
160248
162783
165508
168308
171107
173896
176878
180626
186864
195442
199111
197899
190456
166426
149049
148004
149180
152115
155780
158410
160066
161558
163416
165833
168661
171456
173755
175546
177266
179649
183949
190088
192731
192152
187714
171863
155782
153349
153939
155720
158829
161736
163418
164398
165362
166726
168675
171029
173265
175065
176645
178568
181746
185866
187735
187287
184443
173365
157780
153193
153231
154025
156042
158836
160943
161989
162656
163398
164452
165970
167843
169616
171005
172235
173855
176783
181144
183867
183819
182171
174121
160734
156105
156342
157559
160422
163584
165088
165397
165376
165334
165497
165985
166895
168190
169478
170593
171867
173972
177562
180766
181479
181026
176712
165906
158019
157258
157865
159724
162877
165692
167084
167799
168430
169215
170270
171745
173591
175453
176952
178151
179485
181574
184259
186246
186105
184244
176763
164177
158340
157534
157816
159476
162193
164439
165013
164856
164739
164847
165553
167076
169212
171386
173115
174603
176672
180187
184353
184384
181390
172089
162283
159719
160300
163620
167712
168865
168115
166965
166319
166183
167164
169298
171996
174962
178635
183032
185386
182165
173683
162485
159590
161884
166353
165565
164434
165661
171355
179510
181013
177513
170001
165111
163914
164077
165665
167570
170620
176395
182850
182009
175816
167159
161904
160308
164974
174786
179002
177816
172649
166602
165709
167158
171216
173731
173628
171920
169177
168484
168872
170375
171811
171929
171521
170482
169887
169892
170209
170681
170771
170669
170380
170180
170179
170285
170448
170469
170411
170285
170221
170230
170329
170414
3.7639e+07
505959
93398.8
92868.8
94300.3
106230
122559
145792
174483
203823
218403
220977
221872
222246
221311
214896
182007
121403
105922
107771
113310
120711
127673
133838
139651
145585
151967
159016
166924
175763
185775
197615
210811
219323
219754
215994
190147
140597
127117
128600
132897
138766
143589
147255
150637
154277
158262
162432
166613
170706
174729
178911
184057
192030
203984
210783
209433
199532
165058
141092
139933
141560
145600
149927
152992
155275
157466
159868
162527
165361
168242
171043
173727
176523
180062
186067
194568
198345
197242
190183
166710
148638
147274
148343
151197
154923
157668
159375
160855
162672
165076
167957
170891
173391
175370
177192
179531
183629
189407
191886
191260
186913
171288
155064
152467
153046
154772
157842
160793
162562
163613
164625
166041
168069
170544
172933
174843
176424
178199
181044
184811
186638
186209
183591
173258
157892
152954
152952
153690
155649
158440
160619
161752
162469
163237
164310
165851
167774
169643
171129
172422
174060
176950
181144
183694
183622
181953
173916
160566
155842
156031
157145
159927
163370
165124
165684
165863
165977
166202
166670
167454
168539
169689
170760
172017
174123
177717
180849
181497
181008
176644
165826
158028
157283
157857
159677
162838
165698
167092
167802
168448
169276
170396
171961
173885
175737
177202
178356
179626
181632
184229
185940
185759
183981
176976
164815
159179
158507
158832
160466
163067
165153
165576
165292
165073
165100
165693
166986
168944
171128
173017
174652
176712
180075
184340
184657
182162
173318
163056
159786
160162
163255
167386
168739
168037
166863
166176
166071
167112
169275
171984
175003
178832
183436
186243
183312
175384
163473
159714
161024
165313
164868
163714
164789
170559
179277
184017
180480
171930
164295
162277
162558
164542
167607
171756
177870
182900
180983
174867
166699
161706
160265
165120
175169
179331
178041
172594
166548
165720
167206
171348
173894
173776
172003
169146
168410
168796
170298
171793
171938
171535
170491
169845
169830
170139
170634
170746
170666
170410
170223
170220
170315
170457
170473
170410
170287
170239
170246
170344
170408
3.78417e+07
295585
93409.6
92040
93531.5
105897
122971
146811
175892
204761
218615
220920
221845
222044
220800
214234
180981
121139
106384
108256
113686
121001
127971
134287
140360
146621
153312
160596
168475
176958
186383
197628
210375
218653
219205
215367
189127
140020
126988
128367
132697
138678
143689
147535
151042
154718
158655
162735
166824
170873
174915
179123
184212
191884
203390
210221
208792
199681
166336
141324
139889
141502
145402
149610
152538
154686
156831
159334
162214
165305
168358
171175
173732
176294
179599
185359
193787
197701
196832
190112
167081
148371
146724
147716
150463
154220
157076
158846
160310
162059
164386
167245
170244
172883
175008
176934
179270
183235
188739
191129
190494
186233
170815
154456
151729
152275
153964
157030
160055
161923
163059
164150
165655
167786
170399
172927
174896
176418
177984
180459
183971
185920
185531
183222
173604
158332
152955
152940
153643
155550
158341
160598
161795
162544
163339
164450
166050
168050
170008
171583
172933
174590
177449
181496
183911
183852
182182
174200
160858
155956
156049
157022
159547
162960
165060
165778
166176
166549
167004
167623
168409
169343
170296
171231
172425
174509
178056
181051
181599
181050
176592
165726
158042
157324
157867
159643
162772
165623
166989
167668
168306
169158
170303
171877
173815
175655
177049
178135
179249
180988
183408
184873
184681
183153
177012
165591
159965
159409
159843
161595
164316
166451
166722
166283
165907
165821
166216
167355
169135
171199
173113
174813
176841
180076
184293
184865
182632
174097
163515
159561
159722
162625
166907
168671
168115
167074
166446
166327
167317
169438
172128
175188
179074
183778
186700
184003
176396
164177
159885
160665
164768
164938
163599
164009
168607
177721
185145
183688
175848
165229
160948
161442
164177
168437
173521
178476
181488
179322
173829
166578
161967
160843
166147
176315
179490
177718
171918
166315
165801
167490
171737
174076
173897
171986
169112
168401
168784
170289
171712
171832
171439
170413
169834
169850
170172
170648
170747
170656
170399
170241
170249
170362
170494
170498
170426
170285
170223
170228
170327
170380
3.78235e+07
319073
92767.5
91197.1
92904.7
105707
123439
147739
176979
205370
218805
221032
221958
221988
220497
213952
180372
120899
106683
108467
113810
121047
128016
134474
140829
147424
154406
161792
169548
177788
186929
198000
210678
218675
219343
215383
188586
139565
126892
128142
132478
138528
143667
147649
151238
154918
158798
162793
166825
170888
174979
179215
184241
191614
202729
209813
208411
200064
167824
141599
139800
141385
145148
149259
152075
154073
156126
158684
161779
165156
168468
171404
173865
176164
179190
184724
193188
197310
196763
190367
167790
148466
146486
147325
150020
153832
156825
158670
160111
161764
163955
166713
169700
172414
174651
176671
179056
183061
188584
190998
190358
186124
170708
154123
151298
151803
153470
156539
159610
161561
162789
163960
165541
167797
170593
173229
175181
176575
177924
180080
183447
185682
185367
183353
174421
159151
153212
153152
153829
155722
158522
160845
162106
162889
163713
164868
166534
168624
170682
172329
173706
175345
178134
182063
184394
184360
182710
174820
161492
156380
156368
157204
159417
162578
164863
165839
166392
166957
167694
168606
169587
170510
171312
172091
173162
175169
178592
181407
181835
181196
176613
165662
158092
157397
157907
159627
162683
165495
166830
167475
168086
168924
170073
171620
173398
175039
176269
177219
178157
179592
181944
183485
183437
182353
177064
166253
160511
160016
160513
162392
165333
167707
168028
167580
167148
166991
167221
168047
169549
171446
173270
174943
176937
180109
184231
184915
182811
174457
163648
159037
159013
161804
166380
168727
168322
167392
166815
166784
167801
169834
172372
175290
179084
183788
186591
184128
176728
164496
160057
160675
164882
166006
164667
164324
167042
174012
183056
186607
179983
169659
161708
160513
163867
168597
174326
178045
178981
177365
172429
166669
162716
162350
168144
177687
179215
176862
170833
166076
165929
167986
172252
174090
173786
171748
169064
168546
168973
170480
171694
171725
171250
170235
169801
169867
170257
170714
170769
170652
170366
170233
170258
170404
170548
170551
170461
170285
170196
170193
170277
170332
3.77481e+07
442615
90141.3
90197.9
92808
106160
123903
147957
177051
205339
218919
221140
222043
222031
220466
213963
180148
120744
106743
108428
113695
120835
127783
134361
140970
147840
155031
162437
170016
177991
187005
198260
211288
219374
220118
215931
188491
139215
126807
127919
132231
138280
143468
147515
151126
154782
158602
162536
166561
170664
174802
179044
183994
191153
202147
209679
208458
200873
169695
142121
139778
141275
144889
148952
151731
153648
155622
158172
161391
165028
168608
171698
174144
176303
179120
184438
192894
197284
197117
191113
168941
149036
146705
147397
149999
153822
156908
158816
160243
161799
163842
166455
169358
172097
174415
176505
178925
182988
188644
191207
190599
186457
171082
154190
151209
151645
153251
156287
159393
161430
162739
163980
165625
167986
170883
173563
175410
176653
177844
179831
183242
185866
185713
183940
175656
160366
153772
153611
154256
156126
158977
161395
162708
163515
164358
165545
167261
169419
171546
173226
174601
176213
178958
182817
185065
185073
183407
175484
162117
156892
156778
157487
159441
162361
164693
165859
166581
167328
168254
169448
170735
171790
172558
173248
174226
176134
179380
181981
182281
181532
176771
165664
158180
157503
157983
159651
162650
165445
166761
167379
167945
168684
169672
170962
172494
173880
174915
175701
176505
177856
180426
182420
182510
181711
177066
166719
160874
160417
160940
162889
165976
168543
169043
168688
168341
168234
168436
169088
170275
171833
173451
175059
177031
180146
184150
184931
182837
174518
163514
158371
158237
160986
165851
168777
168566
167762
167263
167385
168460
170372
172657
175278
178883
183569
186193
183861
176496
164446
160134
160804
165222
167293