/*--------------------------------*- C++ -*----------------------------------*\
| =========                 |                                                 |
| \\      /  F ield         | OpenFOAM: The Open Source CFD Toolbox           |
|  \\    /   O peration     | Version:  2306                                  |
|   \\  /    A nd           | Website:  www.openfoam.com                      |
|    \\/     M anipulation  |                                                 |
\*---------------------------------------------------------------------------*/
FoamFile
{
    version     2.0;
    format      ascii;
    arch        "LSB;label=32;scalar=64";
    class       volScalarField;
    location    "0.13";
    object      rho;
}
// * * * * * * * * * * * * * * * * * * * * * * * * * * * * * * * * * * * * * //

dimensions      [1 -3 0 0 0 0 0];

internalField   nonuniform List<scalar> 
6000
(
37.8374
0.690279
0.158591
0.157096
0.156495
0.169584
0.188771
0.213249
0.240717
0.266874
0.279823
0.280849
0.279314
0.277119
0.274508
0.268053
0.23679
0.177685
0.1617
0.161518
0.165323
0.171333
0.177483
0.183625
0.189939
0.196303
0.202445
0.208129
0.213486
0.218908
0.225098
0.232826
0.241926
0.248411
0.249337
0.247866
0.229846
0.186466
0.169143
0.167831
0.169922
0.174134
0.178107
0.181304
0.184255
0.187267
0.190306
0.193264
0.196038
0.198536
0.200687
0.202686
0.205287
0.210352
0.218813
0.223208
0.223783
0.215786
0.18923
0.170991
0.169153
0.169882
0.172745
0.176086
0.178573
0.180477
0.182229
0.184049
0.186024
0.188082
0.190059
0.191768
0.193216
0.1948
0.197537
0.202731
0.207755
0.208384
0.206451
0.194889
0.174048
0.166889
0.166405
0.167431
0.170023
0.172788
0.174545
0.175549
0.176365
0.177435
0.178966
0.180833
0.182638
0.184009
0.184931
0.185795
0.187529
0.191379
0.19575
0.196444
0.195394
0.188687
0.172413
0.162678
0.161752
0.162065
0.163674
0.166152
0.168056
0.168979
0.169466
0.169999
0.170888
0.172222
0.173744
0.175009
0.175845
0.176444
0.177274
0.179322
0.183094
0.185638
0.185467
0.183626
0.17543
0.163167
0.159458
0.159259
0.15983
0.161645
0.163705
0.164804
0.165226
0.165536
0.16602
0.166896
0.168258
0.169674
0.170491
0.170738
0.170796
0.170997
0.17184
0.17306
0.173154
0.172464
0.169614
0.161651
0.153132
0.1512
0.151029
0.151539
0.153105
0.15506
0.156174
0.156494
0.156603
0.156772
0.157197
0.158053
0.159312
0.16051
0.161161
0.161396
0.161574
0.162029
0.163124
0.164282
0.164195
0.16321
0.159266
0.150828
0.144978
0.14393
0.143632
0.144101
0.144917
0.14527
0.144945
0.144335
0.143707
0.14339
0.143306
0.14359
0.144336
0.145513
0.146849
0.148148
0.149596
0.151528
0.154261
0.15754
0.159783
0.161062
0.159945
0.155462
0.152501
0.153468
0.15591
0.160083
0.164771
0.167771
0.169379
0.170576
0.171635
0.172874
0.174166
0.175684
0.177602
0.179881
0.182409
0.185383
0.189412
0.194309
0.197118
0.198435
0.195907
0.189974
0.187666
0.190077
0.194823
0.202131
0.209423
0.21443
0.218916
0.223751
0.22951
0.23652
0.245204
0.255391
0.267123
0.28143
0.298256
0.311467
0.319481
0.318404
0.314052
0.320086
0.331714
0.348549
0.363325
0.369864
0.371844
0.37328
0.376221
0.383242
0.39556
0.414649
0.44555
0.494872
0.574221
0.698481
0.874229
1.09418
1.30827
1.47959
1.56001
1.57501
1.55028
1.51147
1.50932
1.52583
1.5698
1.61817
1.6367
1.64045
1.63139
1.62136
1.62371
1.6325
1.65122
1.66346
1.6662
1.66387
1.65995
1.66083
1.66409
1.66952
1.67153
1.67141
1.66936
1.66889
1.67015
1.67375
1.67794
1.67905
1.67873
1.67616
1.67292
1.67239
1.67306
1.67511
1.67795
1.67977
1.68039
1.68072
1.68102
1.68141
1.68177
1.68173
37.8492
0.689679
0.15845
0.157439
0.156993
0.16967
0.188368
0.212779
0.240309
0.266658
0.279767
0.28088
0.279259
0.277041
0.274486
0.268254
0.237552
0.178004
0.161518
0.161396
0.165283
0.171373
0.177557
0.183658
0.189886
0.196176
0.202278
0.208037
0.213558
0.219145
0.22547
0.233276
0.242446
0.248992
0.249799
0.248122
0.229746
0.186028
0.168889
0.16773
0.16988
0.174105
0.178007
0.181132
0.184022
0.186958
0.189964
0.192949
0.195811
0.198475
0.200867
0.203173
0.206059
0.211272
0.219663
0.223831
0.224086
0.215777
0.188818
0.170759
0.169015
0.16982
0.172742
0.176099
0.178555
0.180383
0.18207
0.183879
0.185892
0.18804
0.19012
0.19191
0.193402
0.194997
0.19777
0.203105
0.208316
0.208959
0.20704
0.195561
0.174576
0.167174
0.16664
0.167611
0.170143
0.172881
0.174641
0.175657
0.176481
0.177544
0.17905
0.180884
0.182658
0.184016
0.184951
0.185839
0.187585
0.191434
0.19594
0.196762
0.195859
0.189364
0.173236
0.163293
0.162321
0.162588
0.164143
0.166574
0.168461
0.16939
0.169899
0.170449
0.171341
0.172663
0.174163
0.175397
0.176195
0.176768
0.17759
0.179626
0.183363
0.185845
0.185674
0.183774
0.175506
0.163227
0.159547
0.159356
0.159932
0.161752
0.163824
0.164903
0.165278
0.165523
0.165925
0.166726
0.167997
0.169336
0.170109
0.170345
0.170429
0.170728
0.171824
0.173443
0.173816
0.17317
0.170284
0.162145
0.153344
0.151301
0.151101
0.151584
0.15312
0.155053
0.156131
0.156406
0.156472
0.156594
0.156963
0.157765
0.158982
0.160154
0.160796
0.161033
0.161207
0.161659
0.16274
0.163859
0.163735
0.162731
0.158784
0.150378
0.144583
0.143589
0.143349
0.143939
0.144978
0.145457
0.145192
0.144587
0.143913
0.143526
0.143393
0.143636
0.144332
0.145475
0.146766
0.148016
0.149416
0.151289
0.153965
0.157198
0.159396
0.160656
0.159498
0.155034
0.152128
0.153144
0.155626
0.159794
0.164489
0.167553
0.169188
0.170433
0.171596
0.172905
0.17429
0.175936
0.177914
0.180126
0.182503
0.185349
0.189281
0.194098
0.196867
0.198162
0.195633
0.189682
0.187334
0.189738
0.194487
0.201833
0.209222
0.214316
0.218847
0.223776
0.229496
0.236448
0.245014
0.255034
0.266546
0.280543
0.297191
0.311209
0.32014
0.320632
0.316943
0.324023
0.336909
0.354716
0.369899
0.376005
0.377675
0.378952
0.381615
0.388275
0.400049
0.417553
0.445829
0.492757
0.570363
0.695308
0.872232
1.0922
1.30468
1.47465
1.5542
1.56974
1.5464
1.50968
1.50834
1.52481
1.56793
1.61558
1.6338
1.63718
1.62787
1.62015
1.62437
1.63613
1.65532
1.66458
1.66599
1.66159
1.65766
1.65914
1.66368
1.67085
1.67323
1.67284
1.67
1.66867
1.66972
1.67321
1.67776
1.67917
1.67895
1.67653
1.67321
1.67259
1.67326
1.67533
1.67815
1.67974
1.68009
1.68023
1.68047
1.68097
1.6815
1.68154
37.8347
0.714501
0.1595
0.158323
0.157495
0.169472
0.18749
0.211894
0.239604
0.266292
0.27962
0.280818
0.279094
0.27688
0.27443
0.26851
0.238611
0.178638
0.161307
0.161308
0.165323
0.171525
0.177721
0.183718
0.189762
0.195861
0.201866
0.207699
0.213405
0.219275
0.225858
0.233917
0.243343
0.249923
0.250538
0.24856
0.229637
0.18536
0.168645
0.167742
0.169982
0.174221
0.178012
0.180932
0.183631
0.186444
0.189421
0.192479
0.195508
0.198381
0.200999
0.203527
0.206695
0.212245
0.22076
0.224687
0.224564
0.215691
0.188024
0.170383
0.168839
0.169732
0.17273
0.176084
0.178467
0.180196
0.181803
0.183604
0.185699
0.187989
0.190204
0.192067
0.193575
0.19515
0.197877
0.203224
0.208779
0.209477
0.207716
0.196621
0.175437
0.167573
0.166995
0.167877
0.170325
0.173032
0.174786
0.175814
0.176653
0.177703
0.179156
0.180919
0.182632
0.183965
0.184912
0.185848
0.187602
0.191432
0.196049
0.196985
0.196191
0.190176
0.17447
0.164172
0.163109
0.163292
0.164763
0.167144
0.169033
0.169995
0.170538
0.171104
0.171991
0.173284
0.174738
0.175914
0.176658
0.177201
0.178037
0.180111
0.183818
0.186158
0.185962
0.183928
0.175527
0.163276
0.159687
0.159534
0.160124
0.161937
0.16397
0.164971
0.165271
0.165451
0.165807
0.166553
0.167706
0.168871
0.169538
0.169755
0.169858
0.170244
0.171573
0.173697
0.174521
0.17406
0.171435
0.16322
0.153814
0.151497
0.151259
0.151699
0.153181
0.155079
0.156116
0.156337
0.156356
0.156425
0.156727
0.157444
0.158579
0.1597
0.160323
0.160565
0.160761
0.16126
0.162376
0.163458
0.163268
0.162183
0.15815
0.149772
0.144079
0.143131
0.14295
0.143668
0.145005
0.14569
0.145505
0.144938
0.144258
0.143839
0.14368
0.143855
0.144445
0.145498
0.146735
0.147935
0.149273
0.151069
0.153654
0.156792
0.158879
0.160099
0.158879
0.154383
0.151498
0.152507
0.154972
0.159131
0.16387
0.167054
0.168725
0.170023
0.171305
0.172707
0.174244
0.176096
0.178279
0.180563
0.182876
0.185573
0.189316
0.19397
0.196617
0.197814
0.195228
0.189217
0.186813
0.189175
0.19387
0.201199
0.208679
0.213868
0.218365
0.22325
0.228881
0.235767
0.244208
0.253975
0.265084
0.278487
0.294874
0.310044
0.32074
0.325684
0.324762
0.335568
0.352866
0.374455
0.391281
0.395994
0.396392
0.39649
0.398143
0.40411
0.414819
0.428498
0.450508
0.491516
0.561989
0.683896
0.860443
1.07911
1.28598
1.4506
1.53129
1.54842
1.52875
1.49788
1.50075
1.52168
1.56928
1.61823
1.63369
1.6349
1.62291
1.61772
1.62345
1.64022
1.66181
1.66864
1.66787
1.6597
1.65416
1.65586
1.6624
1.67204
1.67543
1.67515
1.67143
1.66866
1.6693
1.67241
1.67738
1.67932
1.67924
1.67706
1.67363
1.67286
1.67354
1.67569
1.67852
1.67981
1.68
1.67984
1.6798
1.68018
1.68091
1.68115
37.8609
0.686991
0.15947
0.158126
0.156936
0.168673
0.186687
0.211136
0.238916
0.265792
0.279363
0.280688
0.278842
0.27668
0.274392
0.268709
0.239585
0.179166
0.160984
0.161165
0.165362
0.171714
0.17793
0.183762
0.189506
0.195301
0.201128
0.207016
0.212993
0.21928
0.226314
0.23467
0.244347
0.250971
0.251359
0.248929
0.22927
0.184426
0.168268
0.167749
0.170105
0.174347
0.177992
0.180756
0.183283
0.185987
0.18896
0.192125
0.195339
0.198412
0.201231
0.203951
0.207345
0.213262
0.222015
0.225749
0.225179
0.215618
0.187101
0.16994
0.168634
0.169661
0.172764
0.176146
0.178484
0.180132
0.181647
0.183397
0.185528
0.187912
0.190234
0.192201
0.193767
0.195337
0.19796
0.203197
0.209082
0.209964
0.208397
0.197987
0.176702
0.168107
0.16749
0.168269
0.17061
0.173254
0.174979
0.175999
0.17684
0.177865
0.179261
0.180941
0.182586
0.183898
0.184882
0.185864
0.187598
0.191337
0.196058
0.197248
0.196627
0.191193
0.176071
0.165301
0.164118
0.164233
0.165623
0.167958
0.169821
0.170767
0.171316
0.1719
0.172783
0.174038
0.175419
0.176506
0.177169
0.177664
0.178509
0.180632
0.184334
0.186441
0.186193
0.184002
0.175445
0.163246
0.159754
0.159666
0.160271
0.162065
0.16406
0.165005
0.165226
0.165319
0.165576
0.166177
0.167125
0.168122
0.168767
0.169045
0.169238
0.169757
0.171287
0.173796
0.17503
0.174728
0.172475
0.164626
0.154677
0.151854
0.151532
0.151887
0.153261
0.155072
0.156038
0.156209
0.156186
0.156215
0.156474
0.157139
0.158159
0.159126
0.159636
0.159819
0.159998
0.160529
0.161709
0.162777
0.162548
0.161444
0.157454
0.149235
0.143664
0.14277
0.142647
0.143444
0.144963
0.145841
0.145754
0.145246
0.144637
0.144254
0.144124
0.144283
0.144785
0.145698
0.146809
0.147917
0.149185
0.150891
0.153361
0.156371
0.158327
0.15948
0.158164
0.153579
0.150683
0.151638
0.154023
0.158037
0.162747
0.16611
0.167886
0.169271
0.170678
0.172194
0.173946
0.176086
0.178496
0.180857
0.183125
0.185685
0.189241
0.193772
0.196334
0.197472
0.194941
0.188876
0.186264
0.188514
0.193069
0.200309
0.207792
0.212992
0.21736
0.22209
0.22751
0.234142
0.242251
0.2516
0.262181
0.274978
0.290959
0.307383
0.320601
0.330746
0.335626
0.352865
0.378198
0.4082
0.430316
0.434864
0.433733
0.4325
0.431548
0.435123
0.443684
0.451436
0.463547
0.493908
0.55203
0.663404
0.831765
1.0399
1.23276
1.38681
1.47315
1.49565
1.48626
1.46639
1.47688
1.50654
1.56473
1.62067
1.63671
1.6356
1.61949
1.61437
1.62168
1.64259
1.667
1.67328
1.67119
1.65922
1.65147
1.65311
1.66093
1.67289
1.67744
1.6773
1.67311
1.66884
1.66914
1.67184
1.67709
1.6796
1.67964
1.67761
1.67404
1.67313
1.67382
1.67605
1.67884
1.67984
1.67991
1.67946
1.67906
1.6793
1.68009
1.68077
37.8882
0.664204
0.159283
0.157867
0.156265
0.168113
0.186317
0.210791
0.238375
0.265307
0.279195
0.280677
0.278831
0.276848
0.274738
0.269057
0.24015
0.179227
0.16044
0.160808
0.16524
0.171787
0.178029
0.183666
0.18906
0.194501
0.200118
0.206022
0.212286
0.219055
0.22656
0.235327
0.245223
0.251926
0.252108
0.249177
0.228763
0.183448
0.167877
0.167729
0.170266
0.174514
0.178049
0.180683
0.183081
0.185709
0.188687
0.191918
0.195213
0.198366
0.201258
0.204091
0.207722
0.214005
0.22301
0.226698
0.225736
0.215635
0.18635
0.169504
0.168404
0.169537
0.172737
0.176137
0.178445
0.180035
0.181491
0.183204
0.185319
0.187727
0.190121
0.192183
0.19384
0.195441
0.197939
0.202998
0.209071
0.210198
0.208772
0.199272
0.178121
0.168584
0.167955
0.168624
0.170875
0.173468
0.175157
0.176158
0.177
0.17802
0.179383
0.181001
0.182592
0.183858
0.184826
0.185818
0.187513
0.191128
0.19596
0.197401
0.19693
0.192061
0.177595
0.166346
0.164995
0.16507
0.166397
0.168687
0.17055
0.171503
0.172041
0.172594
0.173412
0.174571
0.175849
0.176847
0.177447
0.177915
0.17878
0.180943
0.184585
0.186535
0.186238
0.183915
0.175214
0.163118
0.159737
0.159702
0.160308
0.162037
0.163968
0.164888
0.165063
0.165092
0.165237
0.16565
0.166387
0.167266
0.167941
0.168323
0.168645
0.169317
0.171002
0.173715
0.175191
0.174955
0.172992
0.165762
0.155649
0.152376
0.151997
0.152256
0.153442
0.155059
0.155887
0.155999
0.155959
0.155963
0.156163
0.156721
0.157601
0.158416
0.158818
0.158943
0.159102
0.159674
0.160963
0.162089
0.161882
0.160833
0.156998
0.149022
0.143488
0.14259
0.142471
0.143259
0.144862
0.145873
0.145903
0.145467
0.144966
0.144661
0.144619
0.144847
0.145385
0.146233
0.147165
0.148093
0.149235
0.150849
0.153239
0.156141
0.157913
0.158945
0.157448
0.152669
0.149777
0.150685
0.152951
0.156723
0.161247
0.16467
0.166529
0.168032
0.169618
0.171357
0.173346
0.175715
0.178337
0.180835
0.18311
0.185573
0.188977
0.193513
0.196269
0.197475
0.195023
0.188828
0.18593
0.187998
0.192327
0.199426
0.206846
0.211911
0.216002
0.220423
0.225468
0.23164
0.239217
0.248031
0.258064
0.270303
0.285924
0.3036
0.319192
0.333896
0.34447
0.368652
0.404085
0.447135
0.480212
0.488503
0.487705
0.486071
0.483503
0.483198
0.486781
0.487304
0.488599
0.502865
0.546629
0.638385
0.785941
0.968282
1.13695
1.27595
1.37272
1.40768
1.41782
1.41468
1.43835
1.48204
1.55363
1.62212
1.64245
1.64074
1.61987
1.61131
1.61887
1.64187
1.66928
1.67672
1.67442
1.66046
1.6504
1.65183
1.6598
1.67321
1.67888
1.67884
1.67459
1.66927
1.66925
1.67166
1.67694
1.6798
1.67988
1.67795
1.67434
1.67338
1.6741
1.67639
1.67909
1.67991
1.67987
1.67914
1.67841
1.67856
1.67929
1.68037
38.0181
0.537487
0.157985
0.157182
0.155898
0.16811
0.186344
0.210598
0.237946
0.264916
0.279038
0.280649
0.278866
0.277031
0.274957
0.269004
0.239895
0.178779
0.159891
0.160474
0.165077
0.171746
0.177981
0.183438
0.188554
0.193661
0.199036
0.204882
0.211334
0.218484
0.226429
0.235559
0.245708
0.252489
0.252498
0.249149
0.227972
0.182373
0.167423
0.167633
0.170396
0.174715
0.178184
0.180689
0.18301
0.185606
0.188586
0.191836
0.195151
0.198312
0.201219
0.204109
0.207853
0.214319
0.223573
0.227405
0.22618
0.215795
0.186
0.169169
0.16818
0.169388
0.172668
0.176079
0.178374
0.179951
0.181394
0.183068
0.185102
0.187424
0.189773
0.191853
0.193592
0.195291
0.197758
0.202648
0.208848
0.210236
0.208851
0.200266
0.179487
0.168889
0.168276
0.168843
0.171019
0.173575
0.17524
0.176227
0.177077
0.178104
0.179459
0.181086
0.182664
0.183895
0.184795
0.185736
0.187371
0.19087
0.195759
0.197404
0.196958
0.192532
0.178745
0.167107
0.165593
0.165634
0.16688
0.16915
0.171029
0.171975
0.172496
0.173017
0.173781
0.174867
0.176079
0.177037
0.177626
0.178124
0.179043
0.181243
0.184755
0.186478
0.186103
0.18365
0.174866
0.162894
0.159587
0.159556
0.160114
0.161729
0.163579
0.164474
0.164607
0.164572
0.164617
0.16491
0.165566
0.166449
0.167206
0.167688
0.168094
0.168842
0.170608
0.173461
0.175015
0.174739
0.172978
0.166341
0.156313
0.152778
0.152447
0.152715
0.153823
0.155251
0.155881
0.155884
0.155773
0.155712
0.155829
0.156227
0.156904
0.15757
0.157928
0.158066
0.158268
0.158929
0.160371
0.161608
0.161455
0.160488
0.156825
0.149006
0.143475
0.142572
0.142455
0.143207
0.144769
0.145859
0.146004
0.145656
0.14528
0.145064
0.145142
0.145483
0.146125
0.147011
0.147861
0.148622
0.149581
0.151046
0.153303
0.156057
0.157641
0.1585
0.156743
0.151681
0.148817
0.149696
0.151839
0.155332
0.159588
0.162934
0.164785
0.166332
0.168017
0.169958
0.172258
0.17496
0.177806
0.18041
0.182725
0.185141
0.188475
0.193095
0.196278
0.197713
0.195597
0.189332
0.185978
0.187828
0.191943
0.198799
0.206066
0.210927
0.214636
0.218593
0.223124
0.228672
0.235583
0.243822
0.253378
0.265038
0.280216
0.298684
0.316343
0.334729
0.349623
0.37785
0.421141
0.477039
0.524665
0.543145
0.547441
0.547925
0.548326
0.546151
0.541673
0.533243
0.524985
0.522334
0.550386
0.620025
0.73557
0.878747
1.01534
1.13669
1.24037
1.29721
1.33145
1.35258
1.39386
1.45156
1.53649
1.62039
1.64836
1.64862
1.62411
1.60967
1.61603
1.63856
1.6689
1.67877
1.67734
1.66364
1.6512
1.65207
1.65917
1.67281
1.67956
1.67972
1.67582
1.67004
1.66963
1.67172
1.67674
1.6798
1.67992
1.67814
1.67462
1.67365
1.67436
1.6766
1.67917
1.67986
1.67974
1.67879
1.67789
1.67807
1.67883
1.68013
38.1187
0.440393
0.158015
0.157541
0.156252
0.168394
0.186316
0.210268
0.237579
0.264827
0.279018
0.280599
0.278936
0.277171
0.275013
0.268675
0.239178
0.178039
0.159376
0.16019
0.164955
0.171691
0.177901
0.183225
0.188072
0.19291
0.198095
0.203863
0.21043
0.217866
0.226168
0.235556
0.245863
0.252682
0.25253
0.248798
0.226964
0.181352
0.167019
0.16756
0.170558
0.174983
0.178414
0.180825
0.183058
0.185601
0.188562
0.191803
0.1951
0.198235
0.201137
0.204054
0.20785
0.214337
0.223698
0.227759
0.226394
0.21605
0.186066
0.168967
0.168009
0.16923
0.172542
0.175971
0.178276
0.17987
0.181311
0.182924
0.184829
0.186976
0.189174
0.191217
0.193052
0.194895
0.197393
0.202148
0.208382
0.210065
0.208673
0.200909
0.18062
0.168999
0.168366
0.168884
0.171004
0.173548
0.175199
0.176173
0.17704
0.178115
0.179509
0.181129
0.182683
0.183896
0.184774
0.185659
0.187218
0.190568
0.195411
0.197214
0.196734
0.192611
0.179427
0.167495
0.165823
0.165879
0.167057
0.16927
0.171143
0.172075
0.172554
0.173032
0.173759
0.17481
0.176015
0.177005
0.177645
0.1782
0.179178
0.181391
0.184722
0.186221
0.185747
0.183207
0.174407
0.162565
0.159277
0.159206
0.159674
0.161137
0.162887
0.163772
0.163898
0.163844
0.163874
0.164179
0.16487
0.165794
0.166595
0.167113
0.167544
0.168294
0.170027
0.17286
0.17454
0.174281
0.172677
0.166379
0.156511
0.152912
0.152649
0.152988
0.154235
0.155566
0.155978
0.155872
0.155646
0.155482
0.155485
0.15572
0.156238
0.156834
0.157225
0.157429
0.157701
0.158449
0.160029
0.161379
0.16128
0.160366
0.156825
0.149159
0.143614
0.142694
0.142572
0.143303
0.144819
0.145896
0.146114
0.145885
0.145623
0.145514
0.145683
0.14615
0.1469
0.14781
0.14865
0.14939
0.150299
0.151684
0.153778
0.156263
0.157535
0.158127
0.156003
0.150557
0.147723
0.148569
0.150593
0.153848
0.157856
0.161127
0.162952
0.164471
0.166141
0.168125
0.170585
0.173541
0.176689
0.179534
0.181958
0.184438
0.187815
0.192552
0.19632
0.198094
0.196516
0.190405
0.186478
0.188083
0.191976
0.198536
0.205566
0.210194
0.213542
0.216992
0.220972
0.225824
0.232083
0.239792
0.248863
0.259919
0.274477
0.293238
0.312618
0.333779
0.352362
0.381746
0.428524
0.490881
0.55043
0.582558
0.597495
0.604896
0.614507
0.616124
0.605997
0.588439
0.566197
0.554352
0.568909
0.616654
0.697354
0.798049
0.90083
1.00454
1.10934
1.18605
1.24238
1.28822
1.3479
1.41919
1.51439
1.61426
1.65226
1.65657
1.63149
1.60979
1.6143
1.63418
1.66655
1.67985
1.6796
1.66748
1.65315
1.65295
1.6589
1.6721
1.67989
1.68033
1.677
1.67096
1.67005
1.67178
1.67636
1.67957
1.67974
1.67824
1.675
1.67401
1.67467
1.67676
1.67911
1.67966
1.67948
1.67849
1.67772
1.67798
1.6788
1.68013
37.9814
0.589864
0.158224
0.1579
0.156472
0.168468
0.186215
0.210116
0.237598
0.26503
0.27901
0.280477
0.278998
0.277299
0.275071
0.268288
0.238123
0.177241
0.159161
0.16013
0.165026
0.171832
0.178009
0.183197
0.187875
0.192547
0.197569
0.203248
0.209844
0.217403
0.225851
0.235322
0.245617
0.252366
0.252127
0.248092
0.225801
0.180568
0.166848
0.167616
0.170759
0.175238
0.178661
0.18106
0.183225
0.185725
0.188659
0.19186
0.195098
0.19818
0.20105
0.203956
0.207724
0.214132
0.223532
0.227836
0.226399
0.216347
0.186489
0.16889
0.167903
0.169097
0.172414
0.175857
0.178192
0.179826
0.181274
0.182832
0.184609
0.186562
0.188583
0.19054
0.192403
0.194323
0.196824
0.201447
0.207693
0.209708
0.208294
0.201174
0.181398
0.168919
0.168186
0.168721
0.170799
0.17334
0.175
0.175969
0.17684
0.177956
0.179421
0.181114
0.182706
0.183906
0.184751
0.185596
0.187099
0.190284
0.194956
0.196788
0.196245
0.192338
0.179634
0.167495
0.165659
0.165744
0.166865
0.169035
0.17091
0.171829
0.172268
0.1727
0.173383
0.174423
0.175669
0.176751
0.177494
0.178137
0.179163
0.181329
0.184411
0.185694
0.18514
0.182575
0.173818
0.162077
0.158754
0.158594
0.158955
0.160266
0.161949
0.162909
0.163137
0.163165
0.163273
0.163634
0.164346
0.165278
0.166095
0.166632
0.167065
0.167786
0.169456
0.172226
0.173874
0.173573
0.172027
0.166076
0.156377
0.152745
0.152531
0.152948
0.154421
0.155862
0.156204
0.156002
0.15565
0.155376
0.155267
0.155404
0.155837
0.156405
0.156821
0.157067
0.157387
0.158202
0.15989
0.161339
0.161283
0.160407
0.156946
0.149387
0.143828
0.142906
0.142784
0.143504
0.144997
0.146102
0.146368
0.146237
0.14606
0.146029
0.146241
0.146775
0.147599
0.148528
0.149346
0.150099
0.151047
0.152536
0.154639
0.156849
0.157845
0.158068
0.15535
0.149378
0.146603
0.14737
0.14922
0.152253
0.156061
0.159281
0.161133
0.162622
0.164228
0.166139
0.168584
0.171612
0.174927
0.178034
0.180764
0.18349
0.187026
0.191924
0.196361
0.198503
0.19759
0.191839
0.187336
0.188617
0.192246
0.198522
0.20533
0.209757
0.212834
0.215858
0.219401
0.2237
0.229384
0.236622
0.245278
0.255792
0.269654
0.288102
0.308658
0.331442
0.353322
0.382744
0.429864
0.492808
0.557272
0.598832
0.625853
0.645158
0.666994
0.680732
0.67132
0.648183
0.617649
0.60247
0.605251
0.631209
0.682759
0.747257
0.82183
0.908905
1.00966
1.09574
1.16625
1.22968
1.30472
1.38822
1.49192
1.60391
1.65394
1.66293
1.63944
1.61154
1.61399
1.63082
1.66342
1.68016
1.68104
1.67077
1.65525
1.65387
1.6588
1.67136
1.68027
1.68103
1.67832
1.67205
1.67035
1.67166
1.67566
1.67904
1.67935
1.6783
1.67555
1.67453
1.67508
1.67688
1.67892
1.67941
1.67927
1.67841
1.6778
1.67809
1.67897
1.68027
38.0664
0.50917
0.158633
0.158329
0.156806
0.168631
0.186172
0.210216
0.238059
0.265655
0.279276
0.280399
0.279059
0.277347
0.274984
0.267778
0.236987
0.176646
0.159338
0.160397
0.165411
0.172301
0.178469
0.183563
0.188131
0.192686
0.197622
0.203227
0.209745
0.217225
0.225627
0.235024
0.245148
0.251586
0.251218
0.247044
0.224595
0.180019
0.166811
0.167682
0.170914
0.175458
0.178905
0.181288
0.183482
0.185981
0.188871
0.191993
0.195134
0.19814
0.20097
0.203847
0.207543
0.213774
0.223085
0.22761
0.226169
0.216587
0.187179
0.168894
0.167871
0.168997
0.172266
0.175687
0.178019
0.179665
0.181142
0.182701
0.184393
0.186202
0.188081
0.189954
0.191813
0.193769
0.196244
0.200682
0.206827
0.209114
0.207709
0.201104
0.181823
0.168633
0.167734
0.168288
0.170327
0.172902
0.174595
0.175562
0.176438
0.177578
0.179103
0.180881
0.182562
0.183827
0.184719
0.185597
0.187037
0.190027
0.194436
0.196183
0.195537
0.191771
0.179438
0.167157
0.165188
0.16531
0.166378
0.168493
0.170365
0.17128
0.171691
0.172087
0.172752
0.173815
0.175133
0.176326
0.177192
0.177925
0.178965
0.181012
0.183805
0.184912
0.184294
0.181749
0.17317
0.161533
0.158104
0.157883
0.158167
0.159397
0.161107
0.162217
0.162567
0.162664
0.162821
0.163214
0.163942
0.164887
0.165722
0.166282
0.166733
0.167455
0.169095
0.171764
0.173311
0.172948
0.171392
0.165502
0.15599
0.152545
0.152376
0.152811
0.154342
0.156016
0.156515
0.156291
0.155848
0.155497
0.155301
0.155348
0.155693
0.156227
0.156649
0.156921
0.157276
0.158148
0.159926
0.161442
0.161407
0.160561
0.157169
0.149667
0.144102
0.14317
0.143035
0.143741
0.145263
0.146461
0.146785
0.146717
0.146594
0.146591
0.146805
0.147342
0.14819
0.149146
0.149981
0.150733
0.151698
0.153276
0.155404
0.157394
0.158226
0.158214
0.154903
0.148346
0.145621
0.146282
0.14791
0.15065
0.154229
0.157385
0.159296
0.160782
0.16233
0.164122
0.166457
0.169438
0.17284
0.176206
0.179266
0.18229
0.186005
0.191029
0.196245
0.198728
0.198621
0.193419
0.188386
0.189197
0.192511
0.198418
0.205084
0.209427
0.21237
0.215156
0.218492
0.22246
0.227788
0.234736
0.243125
0.253216
0.266396
0.284163
0.305148
0.3284
0.352534
0.381606
0.42825
0.490147
0.555288
0.600023
0.632489
0.660618
0.695046
0.726965
0.730439
0.713812
0.681561
0.661004
0.654353
0.661804
0.688175
0.73141
0.78875
0.861883
0.953347
1.03771
1.11267
1.18361
1.26822
1.36112
1.47218
1.5932
1.65429
1.66732
1.64574
1.61363
1.6137
1.62884
1.6615
1.68059
1.68217
1.67307
1.65666
1.65412
1.65846
1.67062
1.68067
1.68184
1.67968
1.67324
1.67051
1.67137
1.67468
1.67827
1.67889
1.67832
1.67621
1.67514
1.67556
1.67699
1.6787
1.67916
1.67908
1.67841
1.67802
1.67834
1.67932
1.68044
38.2
0.391001
0.158952
0.158442
0.156915
0.16879
0.186481
0.210782
0.238998
0.266568
0.279441
0.280267
0.279029
0.277226
0.274613
0.267047
0.23581
0.176171
0.159646
0.16086
0.165952
0.172878
0.179066
0.184194
0.188793
0.19338
0.198318
0.203838
0.210198
0.217473
0.225643
0.234829
0.244692
0.250717
0.25015
0.245828
0.223313
0.17948
0.166714
0.167599
0.170881
0.175519
0.17908
0.181567
0.183819
0.186328
0.189179
0.192214
0.195246
0.198165
0.200949
0.203803
0.207453
0.213473
0.222524
0.227216
0.225753
0.216757
0.188033
0.168978
0.167859
0.168921
0.17212
0.175504
0.177801
0.179423
0.180888
0.182429
0.184115
0.185918
0.187747
0.189556
0.191344
0.193256
0.195702
0.19999
0.206024
0.208431
0.207066
0.200836
0.182001
0.168145
0.167056
0.167634
0.16966
0.172269
0.174036
0.175037
0.175902
0.177033
0.178577
0.180417
0.182212
0.183612
0.18461
0.185529
0.186922
0.18973
0.193847
0.19545
0.194695
0.190967
0.178934
0.166604
0.16451
0.164649
0.165665
0.167721
0.169592
0.170534
0.170956
0.171354
0.172035
0.173136
0.174527
0.175829
0.176799
0.177585
0.178583
0.180456
0.182984
0.183974
0.183323
0.180859
0.172659
0.161163
0.157585
0.157357
0.157614
0.158803
0.160534
0.161732
0.162164
0.162323
0.16252
0.162933
0.163671
0.164645
0.165532
0.166138
0.166622
0.16736
0.168985
0.171548
0.172988
0.172578
0.170996
0.165127
0.155668
0.152214
0.152083
0.152557
0.154224
0.156064
0.156755
0.156638
0.156271
0.15588
0.155623
0.15557
0.155786
0.156252
0.156691
0.156993
0.157377
0.158281
0.160111
0.161652
0.161621
0.160786
0.157412
0.149937
0.144408
0.143488
0.143346
0.144038
0.14559
0.14688
0.147264
0.147235
0.147146
0.147161
0.14738
0.14792
0.148762
0.149701
0.150523
0.151261
0.152195
0.153729
0.155762
0.15751
0.158204
0.15806
0.154442
0.14755
0.144897
0.145474
0.146907
0.149349
0.152563
0.155525
0.157438
0.158902
0.160415
0.162126
0.164325
0.167197
0.170628
0.17422
0.177628
0.180989
0.184913
0.190066
0.195892
0.198745
0.199406
0.194892
0.189426
0.189752
0.192851
0.19854
0.205099
0.209352
0.21218
0.214765
0.217965
0.221865
0.227149
0.234064
0.242335
0.25213
0.264756
0.281791
0.302612
0.325316
0.350292
0.378061
0.424159
0.483816
0.548443
0.594282
0.628614
0.660748
0.701164
0.746955
0.77091
0.772004
0.746843
0.722345
0.709922
0.70596
0.715346
0.740963
0.785172
0.851019
0.933539
1.00765
1.07904
1.151
1.24077
1.34054
1.45866
1.58651
1.65469
1.67019
1.64925
1.61466
1.61365
1.62845
1.66126
1.68156
1.6834
1.67455
1.65727
1.65387
1.6579
1.66996
1.68095
1.68257
1.68071
1.67416
1.67053
1.67104
1.67384
1.67761
1.67862
1.67837
1.67677
1.6757
1.676
1.67709
1.67857
1.679
1.67894
1.67837
1.6782
1.67855
1.6796
1.68049
37.9712
0.62445
0.158368
0.157997
0.15671
0.168974
0.187039
0.211701
0.240286
0.267579
0.279701
0.280316
0.279082
0.277087
0.27414
0.266288
0.234753
0.175914
0.160047
0.161361
0.166435
0.173336
0.179558
0.184815
0.189598
0.19437
0.199434
0.205005
0.211257
0.218186
0.225854
0.234695
0.244302
0.249999
0.249307
0.244835
0.222132
0.1789
0.166559
0.167387
0.170715
0.175467
0.17918
0.181816
0.184181
0.186741
0.189563
0.192512
0.195442
0.198276
0.201032
0.203891
0.207479
0.213249
0.222012
0.226796
0.225272
0.216898
0.189008
0.169123
0.167886
0.168896
0.171977
0.175269
0.177466
0.179004
0.180451
0.182049
0.183824
0.185705
0.187597
0.189405
0.191095
0.192846
0.195132
0.199267
0.205259
0.207739
0.206467
0.200537
0.18214
0.167726
0.16639
0.166897
0.168861
0.171529
0.173392
0.174439
0.175301
0.176406
0.177942
0.179819
0.181712
0.183258
0.184387
0.185372
0.186718
0.189366
0.193233
0.194731
0.193927
0.190252
0.178379
0.165944
0.163729
0.163866
0.164841
0.16687
0.168779
0.16979
0.170267
0.170701
0.171416
0.172576
0.174056
0.175463
0.176504
0.177284
0.178171
0.179809
0.182101
0.183069
0.182436
0.180152
0.172497
0.161164
0.157329
0.157077
0.157294
0.158442
0.160185
0.161455
0.161963
0.162166
0.16239
0.162821
0.163579
0.164594
0.165552
0.16623
0.166761
0.167516
0.16912
0.17158
0.172912
0.172488
0.170891
0.165036
0.155604
0.152089
0.151936
0.152344
0.153961
0.156004
0.156863
0.156917
0.156698
0.156412
0.156195
0.156122
0.156251
0.156584
0.156947
0.157245
0.157643
0.158574
0.160432
0.16195
0.1619
0.161057
0.15767
0.150201
0.144739
0.143846
0.143705
0.144397
0.145979
0.147322
0.147728
0.14771
0.147639
0.147679
0.147927
0.148491
0.149322
0.150172
0.150872
0.151494
0.152309
0.1537
0.155577
0.157022
0.157526
0.15726
0.15377
0.147008
0.144333
0.144831
0.146125
0.148389
0.151365
0.154074
0.155777
0.157083
0.158487
0.160138
0.162286
0.165057
0.168455
0.172192
0.175899
0.179596
0.183771
0.189091
0.195273
0.198604
0.199932
0.196075
0.190425
0.190305
0.193296
0.198825
0.205419
0.209804
0.212603
0.215077
0.218138
0.221966
0.22723
0.23411
0.242303
0.25201
0.264518
0.281108
0.301251
0.322721
0.346802
0.372149
0.415405
0.471842
0.535126
0.581929
0.617067
0.649925
0.692506
0.744683
0.788617
0.808314
0.802957
0.780938
0.768737
0.76162
0.762508
0.775899
0.805359
0.859281
0.928315
0.992656
1.05945
1.13117
1.22325
1.32774
1.45181
1.58533
1.65585
1.6717
1.64913
1.61453
1.61395
1.62907
1.66246
1.68298
1.68471
1.67538
1.65731
1.6536
1.65759
1.66961
1.68098
1.68277
1.68093
1.67434
1.67036
1.67071
1.67344
1.67739
1.67853
1.67841
1.67704
1.67605
1.67633
1.67732
1.67864
1.67903
1.67894
1.67838
1.6783
1.67863
1.67966
1.68041
38.1975
0.417296
0.157347
0.156945
0.155871
0.168626
0.187448
0.212663
0.241555
0.268381
0.27988
0.280296
0.279108
0.277008
0.273818
0.265788
0.233864
0.175693
0.160538
0.161856
0.166801
0.1736
0.179821
0.185218
0.190242
0.195311
0.200651
0.206422
0.212623
0.219205
0.22635
0.234712