/*--------------------------------*- C++ -*----------------------------------*\
| =========                 |                                                 |
| \\      /  F ield         | OpenFOAM: The Open Source CFD Toolbox           |
|  \\    /   O peration     | Version:  2306                                  |
|   \\  /    A nd           | Website:  www.openfoam.com                      |
|    \\/     M anipulation  |                                                 |
\*---------------------------------------------------------------------------*/
FoamFile
{
    version     2.0;
    format      ascii;
    arch        "LSB;label=32;scalar=64";
    class       volScalarField;
    location    "0.13";
    object      T;
}
// * * * * * * * * * * * * * * * * * * * * * * * * * * * * * * * * * * * * * //

dimensions      [0 0 0 1 0 0 0];

internalField   nonuniform List<scalar> 
6000
(
3442.19
2674.34
2112.05
2050.93
2092.5
2189.64
2289.23
2406.1
2534.39
2655.62
2724.1
2749.3
2768.79
2791.52
2811.53
2816.57
2708.74
2412.5
2314.21
2326.43
2362.94
2410.79
2460.62
2511.44
2563.67
2615.98
2666.73
2715.46
2763.85
2813.63
2866.64
2925.44
2990.86
3046.3
3072.94
3084.72
3015.08
2780.19
2669.52
2672.6
2699.39
2737.71
2774.39
2806.43
2836.93
2867.32
2897.04
2925.69
2953.43
2980.31
3005.83
3030.66
3058.95
3101.81
3165.64
3205.29
3221.16
3187.71
3034.54
2913.46
2907.96
2921.45
2949.41
2979.71
3004.47
3025.36
3045.08
3064.88
3085.46
3106.8
3128.13
3148.25
3166.96
3186.72
3214.13
3258.07
3301.91
3316.67
3314.6
3250.31
3111.97
3063.77
3066.91
3082.77
3108.72
3135.93
3156.22
3171.11
3184.68
3200.15
3219.01
3240.38
3261.39
3279.42
3294.5
3309.66
3331.1
3367.11
3407.94
3422.99
3425.77
3390.21
3277.32
3206.38
3205.67
3216.27
3236.69
3263.27
3285.93
3301.08
3312.89
3325.3
3340.84
3360.17
3381.32
3400.78
3417.15
3432.06
3449.26
3475.73
3515.37
3545.76
3555.52
3554.88
3503.33
3411.13
3387.55
3396.06
3412.95
3438.26
3465.91
3485.98
3500.55
3514.71
3530.7
3550
3573.6
3598.34
3618.65
3634.22
3648.29
3663.75
3684.37
3708.41
3722.38
3730.59
3721.91
3663.86
3594.76
3586.02
3595.8
3613.17
3638.72
3668.63
3691.19
3706.14
3719.3
3733.55
3750.39
3771.54
3797.17
3823.25
3844.91
3863.18
3881.95
3904.55
3934.39
3965.55
3983.69
3995.39
3980.45
3915.72
3871.17
3877.71
3896.76
3923.84
3953.62
3977.96
3994.12
4006.83
4016.69
4026.76
4036.34
4045.81
4054.6
4062.17
4065.71
4063.89
4058.02
4051.54
4047.85
4043.02
4017.43
3970.94
3898.06
3794.43
3708.64
3663.96
3630.98
3613.31
3600.47
3572.81
3533.32
3493.63
3455.8
3421.97
3390.93
3363.64
3340.56
3320.76
3302.85
3287.48
3277.22
3269.76
3243.3
3198.67
3126.83
3033.22
2961.52
2917.51
2878.63
2847.84
2808.89
2749.47
2681.88
2612.47
2543.73
2476.69
2412.44
2349.26
2286.12
2224.69
2163.09
2084.03
1987.86
1874.35
1768.09
1699.24
1651.33
1625.44
1608.34
1589.54
1572.83
1561.8
1555.13
1551.75
1546.92
1524.06
1451.34
1296.09
1064.56
820.523
629.333
507.754
441.505
413.337
401.133
393.969
386.782
379.991
376.761
375.181
375.498
376.21
374.32
370.683
366.555
363.207
361.439
360.479
360.514
360.245
359.239
357.962
356.848
356.301
356.027
355.998
355.768
355.371
354.9
354.639
354.54
354.616
354.797
354.746
354.537
354.162
353.76
353.596
353.547
353.592
353.721
353.774
353.734
353.656
353.585
353.519
353.429
353.319
3442.35
2679.69
2113.44
2052.59
2094.82
2190.3
2287.38
2403.99
2532.78
2655.11
2724.6
2750.25
2769.3
2791.89
2812.02
2817.64
2712.54
2414.84
2312.86
2325.42
2362.49
2410.9
2460.98
2511.58
2563.35
2615.26
2665.82
2714.97
2764.17
2814.73
2868.51
2927.86
2993.71
3049.33
3075.24
3086.12
3014.9
2777.58
2667.64
2671.68
2698.92
2737.28
2773.55
2805.21
2835.35
2865.3
2894.87
2923.79
2952.22
2980.18
3007.19
3033.89
3063.87
3107.6
3171.09
3209.18
3222.94
3188.31
3032.24
2912
2907.14
2921.19
2949.53
2979.96
3004.53
3024.89
3044.12
3063.84
3084.73
3106.7
3128.7
3149.3
3168.27
3188.16
3215.87
3260.58
3305.43
3320.32
3318.54
3255.06
3116.02
3066.1
3068.92
3084.38
3109.96
3136.99
3157.32
3172.31
3185.95
3201.36
3220.02
3241.13
3261.93
3279.86
3295.03
3310.33
3331.84
3367.83
3409.58
3425.52
3429.18
3395.11
3283.71
3211.33
3210.29
3220.5
3240.53
3266.73
3289.24
3304.46
3316.49
3329.09
3344.66
3363.89
3384.85
3404.07
3420.15
3434.84
3451.92
3478.2
3517.58
3547.57
3557.33
3556.22
3504.09
3411.76
3388.41
3396.93
3413.85
3439.2
3466.97
3486.88
3501
3514.54
3529.83
3548.52
3571.37
3595.4
3615.21
3630.54
3644.76
3661.03
3683.74
3711.38
3727.86
3736.06
3727.26
3667.91
3596.43
3586.7
3596.12
3613.24
3638.5
3668.17
3690.42
3704.97
3717.73
3731.56
3747.92
3768.57
3793.82
3819.65
3841.22
3859.49
3878.16
3900.61
3930.2
3960.9
3978.62
3990.19
3975.11
3910.45
3866.24
3873.28
3893.05
3921.31
3953.36
3979.29
3996.26
4009.09
4018.58
4027.9
4036.94
4046.11
4054.47
4061.66
4064.89
4062.78
4056.49
4049.53
4045.37
4040.08
4014.17
3967.73
3894.54
3791.11
3705.88
3661.73
3629.18
3611.64
3599.08
3572.12
3532.92
3493.61
3456.62
3423.3
3392.88
3366.32
3343.59
3323.24
3304.21
3287.88
3276.95
3268.89
3242.1
3197.44
3125.75
3032.18
2960.44
2916.67
2878.14
2848
2810.11
2751.61
2684.59
2615.89
2547.18
2480.16
2415.73
2352.21
2288.56
2226.2
2163.45
2083.8
1984.47
1867.33
1753.16
1677.85
1626.06
1598.84
1582.55
1565.52
1551.6
1543.68
1539.9
1538.87
1536.21
1515.53
1444.71
1293.24
1066.15
824.489
632.633
509.858
443.026
414.724
402.403
395.182
387.94
381.07
377.615
375.724
375.733
376.137
373.978
370.227
366.099
363
361.444
360.74
360.82
360.315
359.156
357.723
356.629
356.148
355.978
356.089
355.915
355.482
354.937
354.602
354.495
354.563
354.771
354.748
354.555
354.189
353.782
353.611
353.563
353.609
353.736
353.771
353.708
353.613
353.538
353.481
353.405
353.304
3441.99
2695.71
2120.26
2056.19
2096.7
2189.25
2283.12
2400.01
2530
2654.43
2725.66
2752.12
2770.77
2793.16
2813.2
2819.25
2717.5
2418.73
2310.86
2324.19
2362.22
2411.47
2461.77
2511.88
2562.6
2613.49
2663.63
2713.24
2763.32
2815.19
2870.34
2931.46
2999.05
3054.54
3078.97
3088.72
3015.02
2773.44
2665.52
2671.16
2699.02
2737.46
2773.15
2803.65
2832.69
2862
2891.62
2921.31
2950.95
2980.3
3008.82
3037.01
3068.85
3114.65
3178.88
3215.24
3226.57
3189.24
3028.03
2909.84
2906.29
2921.12
2949.83
2980.28
3004.36
3023.98
3042.62
3062.32
3083.89
3106.95
3129.9
3150.87
3169.91
3189.8
3217.38
3262
3308.64
3323.89
3323.4
3262.96
3123.07
3069.76
3072.39
3087.33
3112.43
3139.3
3159.63
3174.74
3188.51
3203.82
3222.06
3242.62
3262.95
3280.69
3295.92
3311.54
3333.12
3369.07
3411.45
3427.89
3432.09
3401.47
3293.69
3218.82
3217.09
3226.61
3246.08
3271.93
3294.48
3310.02
3322.4
3335.22
3350.8
3369.78
3390.35
3409.13
3424.82
3439.28
3456.3
3482.64
3521.84
3550.9
3560.39
3558.26
3504.91
3412.85
3390.19
3398.81
3415.71
3440.96
3468.43
3487.67
3500.99
3513.8
3528.62
3546.85
3568.68
3591.09
3609.72
3624.64
3638.86
3655.76
3680.36
3712.25
3732.97
3742.3
3735.51
3676.31
3599.75
3587.52
3596.4
3613.2
3638
3667.27
3689.16
3703.24
3715.57
3728.96
3744.75
3764.65
3789.15
3814.49
3835.82
3854.03
3872.77
3895.4
3925.07
3955.14
3972.02
3982.93
3966.92
3902.17
3858.78
3866.25
3886.72
3916.19
3951.32
3979.53
3997.46
4010.87
4020.83
4030.17
4039.09
4047.8
4055.38
4061.85
4064.92
4062.91
4056.56
4049.29
4044.65
4038.66
4012.06
3965.82
3892.31
3788.66
3703.65
3659.42
3626.74
3609.26
3597.4
3571.83
3533.01
3494.1
3458.01
3425.35
3395.97
3370.69
3349.08
3328.99
3309.23
3291.53
3278.99
3269.62
3241.95
3196.82
3125.02
3031.57
2960.12
2916.96
2879.22
2850.33
2814.45
2757.91
2692.03
2624.42
2556.61
2490.67
2427.04
2363.66
2299.21
2234.64
2168.67
2085.18
1977.35
1849.19
1714.45
1619.02
1553.06
1518.31
1500.77
1486.23
1478.66
1477.67
1482.2
1491.06
1495.9
1482.49
1421.76
1284.11
1069.87
835.68
644.11
519.179
450.448
421.108
408.334
400.481
392.511
384.886
380.57
377.771
377.219
376.883
373.702
369.52
365.281
362.512
361.16
360.882
361.207
360.559
359.167
357.469
356.271
355.829
355.806
356.121
356.059
355.651
355.017
354.563
354.43
354.477
354.714
354.737
354.574
354.224
353.809
353.628
353.583
353.634
353.762
353.777
353.695
353.572
353.476
353.413
353.351
353.271
3443
2678.3
2114.14
2051.98
2092.19
2184.56
2279.12
2396.65
2527.14
2652.93
2726.12
2753.92
2772.21
2794.71
2814.81
2820.76
2722.19
2422.11
2308.16
2322.58
2361.91
2412.36
2462.98
2512.19
2561.23
2610.49
2659.83
2709.83
2761.12
2814.75
2872.08
2935.61
3005.38
3060.57
3082.92
3091.24
3014.15
2767.76
2662.55
2670.58
2699.26
2737.78
2772.78
2802.44
2830.57
2859.49
2889.53
2920.27
2951.34
2982.18
3012.06
3041.54
3074.95
3123.07
3188.55
3223.18
3231.72
3191.09
3023.57
2907.6
2905.51
2921.34
2950.56
2981.24
3004.99
3023.97
3041.97
3061.4
3083.38
3107.23
3131.01
3152.81
3172.3
3192.35
3219.49
3263.28
3311.57
3327.78
3328.77
3273.56
3133.86
3075.16
3077.67
3092.03
3116.53
3143.05
3163.19
3178.25
3192.02
3207.12
3224.89
3244.8
3264.59
3282.22
3297.71
3313.59
3335.07
3370.61
3413.74
3431.45
3436.43
3409.94
3307.25
3229.13
3226.5
3235.5
3254.48
3280.02
3302.41
3317.86
3330.36
3343.39
3358.95
3377.58
3397.58
3415.73
3430.92
3445.07
3462.03
3488.53
3527.81
3555.21
3564.08
3560.5
3505.54
3414.01
3392.07
3400.91
3417.65
3442.45
3469.46
3488.21
3500.74
3512.56
3526.39
3543.3
3563.28
3584.04
3602.17
3617.34
3632.09
3649.91
3676.11
3711.2
3735.23
3745.44
3741.62
3686.74
3605.84
3588.89
3596.63
3612.71
3636.69
3665.16
3686.42
3699.99
3711.88
3724.95
3740.38
3759.8
3783.21
3806.99
3827.09
3844.58
3862.99
3885.66
3915.66
3945.3
3961.53
3972.17
3956.38
3893.1
3850.87
3858.91
3880.14
3910.36
3947.38
3977.73
3996.71
4010.66
4021.7
4032.02
4041.98
4051.1
4058.3
4063.86
4066.26
4064.1
4057.86
4050.62
4045.69
4039.16
4012.15
3966.29
3892.54
3788.4
3703.41
3658.9
3625.82
3607.44
3595.56
3571.72
3534
3495.69
3460.47
3428.47
3400.49
3377.15
3356.83
3336.59
3315.53
3295.9
3281.16
3270.18
3241.65
3196.28
3125.31
3032.45
2960.92
2918.69
2882.22
2855.21
2822.11
2768.54
2704.96
2639.77
2574.27
2510.39
2448.27
2385.51
2320.23
2252.83
2181.82
2093.1
1975.22
1830.78
1668.84
1542.54
1450.74
1397.14
1370.27
1355.29
1351.81
1357.59
1374.18
1398.06
1415.41
1411.42
1369.72
1259.49
1071.71
857.029
671.002
543.757
471.038
438.428
423.74
413.586
403.489
393.347
386.448
381.242
379.15
377.628
373.58
368.964
364.456
361.834
360.692
360.73
361.354
360.747
359.263
357.27
355.926
355.504
355.579
356.11
356.161
355.799
355.113
354.536
354.377
354.404
354.659
354.73
354.59
354.253
353.829
353.641
353.598
353.655
353.782
353.776
353.677
353.528
353.404
353.332
353.28
353.238
3444.2
2658.5
2105.11
2046.68
2087.4
2181.45
2277.57
2395.16
2524.33
2650.59
2726.01
2755.08
2773.56
2796.84
2817.46
2822.81
2725.15
2423.06
2304.63
2320.13
2361.07
2412.95
2463.92
2512.02
2559.02
2606.33
2654.71
2704.89
2757.34
2812.82
2872.54
2938.99
3011
3066.03
3086.26
3093.18
3012.89
2761.98
2660
2670.32
2700.05
2738.79
2773.27
2802.23
2829.72
2858.5
2889.11
2920.91
2953.13
2984.84
3015.29
3045.55
3080.51
3130.78
3197.3
3230.97
3237.05
3193.55
3020.45
2905.64
2904.68
2921.2
2950.82
2981.54
3005.05
3023.65
3041.26
3060.52
3082.57
3106.76
3131.12
3153.58
3173.7
3194.14
3221
3264.02
3313.3
3330.48
3332.65
3284.26
3146.59
3080.88
3083.35
3097.17
3121.19
3147.43
3167.31
3182.19
3195.87
3210.83
3228.3
3247.72
3267.16
3284.51
3299.92
3315.8
3336.95
3371.84
3416.08
3435.34
3440.8
3418.05
3321.08
3239.95
3236.1
3244.8
3263.43
3288.57
3310.93
3326.44
3338.89
3351.72
3366.78
3384.67
3403.84
3421.32
3436.06
3450.04
3467.13
3493.91
3532.96
3559.05
3567.18
3562.27
3505.75
3414.85
3393.65
3402.53
3418.92
3442.98
3469.26
3487.69
3499.67
3510.63
3523.3
3538.45
3556.43
3575.9
3593.94
3609.68
3625.23
3644.12
3671.68
3708.67
3734.68
3744.96
3742.89
3693.75
3611.91
3590.55
3597.42
3612.57
3635.02
3661.74
3681.77
3694.73
3706.37
3719.22
3734.17
3752.55
3774.53
3796.72
3815.58
3832.34
3850.41
3873.28
3904.11
3934.12
3950.37
3961.22
3946.66
3885.8
3843.98
3851.94
3873.23
3903.42
3941.21
3973.15
3993.47
4007.94
4020.26
4032.04
4044.07
4055.04
4063.6
4069.24
4070.71
4067.83
4061.12
4053.93
4049.47
4043.65
4016.36
3970.82
3896.7
3791.51
3706.86
3662.39
3628.72
3608.67
3595.55
3572.58
3535.78
3498.29
3464.22
3433.53
3406.74
3384.37
3364.77
3344.36
3321.98
3300.3
3283.34
3271.43
3243.81
3198.77
3128.23
3034.88
2962.56
2921.34
2886.34
2861.79
2832.34
2782.53
2722.27
2660.62
2598.5
2537.55
2477.77
2416.56
2351.26
2281.58
2205.66
2111.56
1982.97
1824.63
1640.6
1484.11
1362.6
1282.18
1234.4
1208.61
1203.1
1211.3
1235.19
1269.52
1299.13
1306.69
1285.78
1209.76
1065.93
887.056
717.875
591.445
513.089
473.722
454.011
438.252
423.423
407.772
395.576
386.141
381.362
378.553
373.828
368.878
363.895
361.065
360.025
360.259
361.206
360.773
359.341
357.199
355.681
355.274
355.386
356.059
356.212
355.891
355.199
354.537
354.353
354.365
354.62
354.723
354.591
354.261
353.835
353.645
353.606
353.669
353.794
353.775
353.659
353.488
353.338
353.258
353.207
353.203
3447.64
2563.9
2083.24
2040.31
2086.1
2182.43
2278.14
2394.16
2521.49
2647.75
2724.89
2755.1
2774.04
2798.04
2818.93
2823.21
2724.56
2421.15
2301.67
2318.38
2360.56
2413.37
2464.41
2511.45
2556.68
2602.08
2649.24
2699.12
2752.17
2808.96
2870.86
2939.93
3014.26
3069.36
3087.79
3093.67
3010.24
2755.85
2657.56
2670.33
2701.35
2740.63
2774.83
2803.11
2830.28
2859.18
2890.36
2923.1
2956.07
2988.05
3018.7
3049.44
3085.21
3136.45
3203.8
3237.46
3241.69
3196.42
3019.64
2904.27
2903.83
2920.82
2950.87
2981.54
3004.92
3023.39
3040.86
3059.86
3081.5
3105.4
3129.7
3152.29
3172.99
3194.21
3221.32
3263.91
3313.93
3332.09
3334.74
3293.08
3159.07
3085.4
3087.98
3101.45
3125.23
3151.32
3171.04
3185.65
3199.26
3214.24
3231.63
3251.1
3270.48
3287.61
3302.6
3318.07
3338.65
3372.63
3417.39
3438.19
3443.63
3424.01
3332.57
3249.07
3244
3252.54
3270.83
3295.94
3318.52
3334.1
3346.54
3359.25
3373.93
3391.15
3409.66
3426.67
3441.16
3455.18
3472.6
3499.83
3538.11
3562.06
3569.11
3563.24
3505.52
3415.23
3394.42
3402.93
3418.57
3441.51
3466.94
3484.97
3496.3
3506.34
3517.93
3531.87
3548.86
3568.02
3586.4
3602.62
3618.51
3637.76
3665.9
3704.1
3730.88
3740.47
3739.63
3695.44
3614.8
3590.73
3597.49
3612.5
3634.13
3658.92
3676.91
3688.86
3699.97
3712.21
3726.48
3743.34
3763.26
3783.83
3802.06
3818.79
3837.11
3860.63
3892.76
3923.73
3940.42
3951.75
3938.81
3879.8
3837.81
3845.45
3866.46
3896
3933.04
3965.89
3987.58
4002.84
4016.86
4030.37
4044.65
4058.02
4069.51
4077.06
4079.05
4075.94
4068.7
4061.32
4057.34
4052.19
4025.59
3980.85
3906.18
3799.56
3715.88
3671.86
3637.48
3615.32
3600.43
3577.3
3540.63
3503.33
3469.68
3439.95
3414.65
3393.59
3374.16
3352.92
3329.15
3305.44
3286.32
3273.67
3247.99
3203.74
3134.42
3040.36
2965.69
2924.52
2890.7
2868.23
2842.42
2796.8
2740.19
2682.28
2623.97
2566.49
2509.9
2451.66
2388.35
2318.15
2238.9
2139.98
2002.54
1832.87
1635
1457.29
1312.18
1206.84
1133.43
1086.72
1070.47
1074.01
1095.4
1130.84
1166.01
1185.13
1179.05
1134.08
1045.58
915.64
778.072
661.046
578.824
530.308
501.593
476.503
452.231
427.721
407.502
392.186
383.865
379.65
374.32
369.123
363.668
360.335
359.252
359.507
360.787
360.63
359.389
357.288
355.595
355.164
355.244
355.946
356.201
355.921
355.262
354.563
354.349
354.345
354.577
354.7
354.575
354.255
353.837
353.649
353.611
353.672
353.79
353.761
353.636
353.448
353.284
353.209
353.161
353.178
3450.48
2493.52
2068.2
2041.03
2089.74
2185.3
2278.46
2392.41
2518.98
2645.82
2723.34
2754.02
2773.88
2798.49
2819.34
2822.36
2721.78
2417.43
2299.24
2317.26
2360.42
2413.72
2464.59
2510.8
2554.49
2598.36
2644.53
2693.92
2747.17
2804.76
2868.13
2939.25
3015.32
3070.53
3087.57
3092.39
3005.98
2750.04
2655.84
2670.74
2703.3
2743.5
2777.7
2805.58
2832.38
2861.24
2892.75
2925.87
2959.01
2990.93
3021.44
3052.16
3088.11
3139.43
3207.31
3241.64
3244.62
3199.37
3021.17
2903.6
2903.22
2920.34
2950.68
2981.52
3004.89
3023.36
3040.71
3059.27
3080.11
3103.05
3126.65
3149.32
3170.81
3193
3220.43
3262.57
3312.86
3332.32
3334.83
3299.01
3169.31
3087.82
3090.05
3103.43
3127.11
3153.47
3173.27
3187.77
3201.49
3216.86
3234.68
3254.2
3273.43
3290.41
3305.24
3320.37
3340.42
3373.23
3417.42
3439.08
3444.27
3427.22
3340.38
3254.45
3247.89
3256.69
3274.88
3300.12
3323.16
3338.88
3351
3363.34
3377.73
3394.73
3413.2
3430.3
3444.94
3459.22
3477.07
3504.57
3541.43
3563.48
3569.59
3563.08
3504.61
3414.97
3394.03
3401.8
3416.31
3437.68
3462.04
3479.8
3490.88
3500.56
3511.77
3525.51
3542.44
3561.59
3579.97
3596.13
3611.87
3630.75
3658.23
3695.82
3723.3
3732.84
3733.52
3692.84
3613.74
3588.74
3595.8
3611.16
3633.43
3657.02
3672.23
3682.62
3692.85
3704.16
3717.44
3733.01
3751.38
3771.12
3789.49
3806.66
3825.42
3849.55
3882.74
3914.58
3931.72
3943.4
3931.72
3874.53
3832.26
3839.45
3859.95
3888.83
3924.95
3957.38
3979.75
3996.3
4011.82
4027.25
4043.32
4058.79
4073.13
4083.8
4088
4086.42
4081.03
4075
4071.75
4066.35
4039.24
3995.25
3920.08
3811.63
3729.54
3686.69
3652.33
3629.01
3612.7
3589.43
3552.81
3515.11
3480.89
3450.78
3425.62
3404.99
3385.99
3364.31
3338.74
3312.79
3291.35
3277.06
3253
3209.51
3142.47
3048.94
2971.03
2928.81
2895.11
2873.22
2849.59
2807.17
2753.63
2698.84
2644.19
2590.2
2537.55
2483.64
2424.16
2355.96
2276.14
2175.18
2032.57
1853.27
1644.89
1452.99
1294.48
1172.46
1079.41
1010.93
977.184
968.779
980.692
1007.37
1037.65
1060.99
1062.15
1045.45
1004.77
926.213
828.802
733.467
655.493
600.45
561.263
524.174
486.914
450.891
421.076
398.885
386.386
380.754
374.941
369.567
363.772
359.79
358.579
358.703
360.168
360.368
359.385
357.415
355.599
355.101
355.13
355.794
356.154
355.918
355.312
354.591
354.338
354.318
354.511
354.649
354.534
354.241
353.847
353.66
353.619
353.67
353.771
353.733
353.603
353.415
353.264
353.197
353.153
353.173
3452.46
2772.01
2055.79
2042.72
2092.18
2186.13
2277.99
2391.41
2518.31
2645.23
2721.32
2751.67
2772.89
2798.28
2819.25
2820.77
2716.86
2412.68
2298.41
2317.29
2361.22
2414.98
2465.68
2511.07
2553.73
2596.64
2641.94
2690.88
2743.95
2801.61
2865.37
2937.19
3013.93
3068.93
3085.23
3088.97
3000.2
2745.42
2655.43
2671.93
2705.69
2746.63
2781.19
2809.26
2835.76
2864.45
2895.91
2928.88
2961.69
2993.22
3023.28
3053.56
3089.06
3139.87
3207.83
3243.17
3245.62
3202.07
3024.9
2903.69
2903.05
2920.03
2950.53
2981.55
3005.14
3023.82
3041.18
3059.43
3079.53
3101.31
3123.89
3146.14
3167.86
3190.48
3218
3259.71
3310.27
3331.3
3333.43
3302.04
3176.68
3088.96
3090.24
3103.72
3127.2
3153.63
3173.63
3188.3
3202.21
3217.98
3236.36
3256.56
3276.22
3293.15
3307.74
3322.65
3342.47
3374.21
3417.08
3438.49
3442.92
3427.44
3344.32
3256.64
3248.62
3257.74
3275.78
3301.03
3324.42
3340.27
3352.16
3364.14
3378.32
3395.39
3414.19
3431.89
3447.1
3461.89
3480.11
3507.34
3542.37
3562.45
3567.81
3560.96
3502.3
3413.17
3391.57
3398.16
3411.49
3431.52
3455.13
3473.3
3485.14
3495.46
3507.03
3520.87
3537.68
3556.55
3574.71
3590.69
3606.1
3624.37
3650.9
3687.53
3714.32
3723.29
3724.49
3686.91
3609.22
3583.61
3591.22
3607.39
3631.52
3655.81
3669.88
3678.62
3687.13
3696.79
3708.71
3723.68
3741.45
3760.9
3779.41
3796.79
3815.71
3840.2
3874.31
3906.94
3924.19
3935.73
3924.56
3868.4
3825.98
3832.91
3853.06
3881.37
3916.69
3948.84
3971.36
3988.84
4005.49
4022.48
4039.83
4056.89
4073.3
4086.55
4093.57
4094.82
4093.11
4090.94
4090.79
4086.15
4059
4015.3
3938.78
3827.92
3748.67
3707.56
3673.77
3650.21
3633.54
3610.9
3575.12
3537.1
3501.85
3470.25
3443.58
3421.53
3401.2
3378.34
3351.48
3323.53
3299.54
3282.82
3259.92
3216.49
3151.74
3058.98
2977.06
2932.75
2898.52
2876.27
2853.17
2812.1
2760.39
2707.46
2655.54
2604.51
2555.41
2506.01
2451.53
2387.63
2310.62
2211.29
2068.84
1882.7
1665.12
1458.85
1291.54
1160.76
1058.84
978.219
927.748
904.385
903.657
913.76
928.655
946.941
955.463
956.121
945.581
910.575
849.576
781.278
717.998
664.824
619.557
571.787
521.578
473.691
434.393
405.545
388.968
381.745
375.611
370.072
364.08
359.518
358.129
358.076
359.54
360.082
359.32
357.519
355.621
355.041
355.027
355.635
356.102
355.913
355.367
354.625
354.312
354.268
354.415
354.569
354.473
354.223
353.869
353.68
353.632
353.664
353.74
353.698
353.573
353.4
353.265
353.2
353.164
353.182
3453.91
2754.1
2049.16
2046.34
2095.75
2187.48
2277.67
2391.43
2519.47
2646.41
2720.36
2749.19
2771.56
2797.37
2818.02
2818.36
2711.54
2408.91
2299.92
2319.3
2363.94
2418.22
2468.91
2513.74
2555.63
2597.83
2642.63
2691.05
2743.44
2800.38
2863.67
2935.05
3011.18
3064.8
3080.29
3083.67
2994.05
2742.5
2656.3
2673.88
2708.51
2750.1
2785.09
2813.28
2840.03
2868.64
2899.72
2932.13
2964.28
2995.13
3024.69
3054.57
3089.45
3139.09
3206.22
3242.45
3244.69
3203.92
3030.12
2904.23
2903.26
2919.87
2950.2
2981.2
3004.86
3023.71
3041.37
3059.78
3079.53
3100.56
3122.41
3144.24
3165.89
3188.54
3215.84
3256.63
3306.83
3329.34
3331.05
3302.97
3181.66
3088.99
3088.96
3102.65
3125.88
3152.4
3172.58
3187.28
3201.32
3217.42
3236.37
3257.29
3277.62
3295.17
3310.22
3325.48
3345.08
3375.61
3416.5
3436.96
3440.47
3425.98
3345.68
3257.42
3248.45
3258
3275.76
3300.55
3323.87
3339.76
3351.52
3363.37
3377.54
3394.84
3414.09
3432.45
3448.34
3463.61
3481.92
3508.4
3540.99
3558.88
3563.41
3556.68
3499.38
3410.82
3388.03
3393.9
3406.33
3425.61
3449.33
3468.64
3481.41
3492.08
3503.74
3517.53
3534.17
3552.86
3570.88
3586.75
3601.97
3619.9
3645.89
3681.39
3706.94
3715.21
3716.24
3678.6
3602.08
3578.03
3586.24
3602.68
3627.43
3653.77
3669.3
3677.75
3685.11
3693.59
3704.11
3717.64
3734.25
3753.18
3771.71
3789.28
3808.4
3833.2
3867.83
3900.66
3917.47
3928.52
3917.5
3861.72
3819.06
3825.5
3844.92
3872.41
3907.27
3939.69
3962.37
3980.18
3997.4
4015.18
4033.41
4051.96
4070.24
4085.39
4095.2
4100.11
4102.38
4104.9
4108.43
4105.3
4080.77
4039.19
3962.25
3849.47
3774.3
3735.82
3703.21
3679.78
3663.44
3642.16
3608.1
3570.33
3534.16
3500.48
3471.16
3446.27
3423.37
3398.49
3369.49
3338.73
3311.18
3290.65
3268.5
3223.98
3160.93
3068.54
2981.94
2934.24
2898.88
2875.24
2852.43
2812.62
2762.12
2710.07
2659.43
2609.61
2562.62
2516.79
2467.01
2408.24
2336.33
2241.97
2104.7
1917.01
1693.38
1473.02
1295.58
1158.56
1053.51
969.674
912.758
878.134
862.053
857.336
854.777
857.972
864.565
872.506
875.822
868.783
840.655
796.764
750.149
706.214
661.771
608.795
549.923
492.736
445.83
411.53
391.496
382.715
376.25
370.517
364.415
359.431
357.825
357.679
359.128
359.903
359.258
357.574
355.612
354.946
354.907
355.483
356.051
355.91
355.422
354.663
354.268
354.197
354.296
354.465
354.403
354.203
353.9
353.708
353.65
353.658
353.706
353.661
353.546
353.392
353.276
353.215
353.191
353.198
3452.22
2438.03
2066.1
2049.45
2096.68
2188.47
2279.19
2393.88
2523.16
2649.14
2719.45
2746.83
2770
2795.62
2815.32
2814.86
2705.97
2405.91
2302.41
2322.78
2367.8
2422.24
2473.03
2518.03
2560.13
2602.49
2647.18
2694.8
2746.07
2801.77
2863.69
2933.7
3008.33
3059.93
3074.56
3077.67
2987.63
2740.16
2657.61
2675.5
2710.68
2753.02
2788.74
2817.59
2844.71
2873.33
2904.04
2935.72
2967.02
2997.16
3026.18
3055.58
3089.9
3138.16
3203.68
3240.46
3242.17
3204.6
3035.89
2905.03
2903.29
2919.61
2949.67
2980.62
3004.26
3023.18
3041.04
3059.59
3079.52
3100.73
3122.46
3144.08
3165.47
3187.89
3214.77
3254.49
3304.17
3327.34
3328.88
3303.07
3185.01
3087.52
3085.85
3099.64
3122.9
3149.7
3170.36
3185.19
3199.06
3215.16
3234.52
3256.14
3277.46
3296.09
3312.08
3327.96
3347.56
3376.96
3415.55
3434.62
3437.6
3423.74
3345.46
3256.84
3246.78
3256.52
3274
3298.42
3321.74
3337.75
3349.47
3361.28
3375.61
3393.34
3413.27
3432.3
3448.93
3464.65
3482.78
3507.98
3537.94
3554.3
3558.4
3552.1
3497.33
3409.98
3386.02
3391.75
3403.77
3422.54
3446.25
3466.1
3479.33
3490.24
3501.89
3515.55
3532.02
3550.74
3569.02
3585.11
3600.41
3618.25
3643.83
3677.91
3702.13
3709.94
3710.72
3672.8
3596.43
3572.11
3580.62
3597.29
3623.06
3650.93
3668.23
3677.84
3686.04
3694.33
3704.08
3716.26
3731.46
3749.2
3767.32
3784.81
3803.78
3828.38
3862.72
3894.94
3911.06
3921.56
3910.12
3854.05
3811.37
3817.34
3835.88
3862.39
3896.68
3929.2
3951.86
3969.57
3986.9
4005.08
4024.06
4044.08
4064.44
4082.24
4094.66
4102.26
4107.65
4113.99
4120.31
4118.53
4097.38
4060.1
3986.46
3875.59
3806.25
3771.84
3741.71
3719.26
3702.94
3682.73
3650.68
3613.6
3576.98
3541.53
3509.11
3480.55
3454.17
3426.41
3394.58
3360.18
3327.86
3302.04
3277.93
3231.41
3168.4
3075.55
2984
2931.8
2895.17
2870.47
2848.15
2809.47
2759.71
2707.86
2657.77
2608.93
2563.29
2519.31
2472.1
2417.04
2350.09
2262.38
2133.8
1950.4
1726.99
1496.98
1310.51
1165.43
1056.49
970.374
911.113
873.269
851.217
837.063
817.844
800.892
792.843
796.152
804.212
809.527
806.636
787.707
756.882
721.957
682.225
629.139
567.525
505.844
454.495
416.522
393.935
383.731
376.794
370.826
364.621
359.388
357.687
357.533
358.981
359.857
359.249
357.594
355.56
354.829
354.783
355.356
356.007
355.91
355.459
354.687
354.217
354.12
354.187
354.371
354.346
354.185
353.924
353.733
353.668
353.658
353.685
353.638
353.529
353.388
353.293
353.238
353.222
353.209
3452.61
2822.16
2054.18
2047.32
2095.95
2189.73
2282.33
2398.69
2529.23
2653.17
2719.75
2745.77
2769.08
2793.71
2811.86
2810.87
2700.49
2403.77
2305.16
2326.31
2371.29
2425.62
2476.61
2522.35
2565.5
2608.86
2654.07
2701.71
2752.15
2805.86
2864.99
2932.78
3005.59
3055.69
3070.18
3072.78
2981.55
2737.35
2658.26
2675.98
2711.5
2754.54
2791.24
2820.99
2848.74
2877.58
2907.95
2938.85
2969.29
2998.76
3027.36
3056.35
3089.89
3136.51
3200.24
3237.16
3238.18
3204.21
3041.74
2905.78
2903.14
2919.34
2948.87
2979.48
3002.73
3021.37
3039.43
3058.71
3079.55
3101.52
3123.73
3145.42
3166.5
3188.28
3214.08
3252.34
3301.67
3325.57
3327.46
3303.25
3188
3086.68
3082.93
3095.86
3118.73
3145.89
3167.21
3182.3
3196.05
3211.91
3231.25
3253.33
3275.66
3295.55
3312.74
3329.38
3349
3377.56
3414.13
3432.19
3435.19
3421.96
3344.62
3254.71
3243.5
3253.11
3270.34
3294.65
3318.29
3334.82
3346.96
3359.11
3373.86
3392.13
3412.81
3432.85
3450.29
3466.19
3483.64
3507.01
3534.9
3551
3555.1
3549.58
3498.45
3412.37
3386.22
3391.63
3403.29
3421.68
3445.13
3465.06
3478.54
3489.59
3501.26
3514.92
3531.45
3550.39
3569.16
3585.75
3601.32
3619.15
3644.35
3677.24
3700.27
3707.92
3708.55
3670.49
3594.17
3569.04
3576.96
3592.85
3618.04
3647.55
3666.5
3677.67
3686.8
3696.07
3706.23
3718.41
3732.83
3749.03
3765.85
3782.44
3800.65
3824.61
3858.37
3889.54
3904.71
3914.55
3902.26
3845.43
3802.9
3808.45
3826.08
3851.66
3885.35
3917.54
3939.65
3956.85
3974.01
3992.46
4012.14
4033.6
4056.04
4076.04
4090.94
4100.68
4107.78
4116.07
4124.54
4124.55
4107.34
4074.91
4008.72
3905
3841.36
3811.97
3785.96
3766.57
3752.36
3733.54
3702.19
3665.12
3627.84
3591.01
3556.2
3523.79
3493.19
3461.57
3426.01
3387.2
3349.29
3317.01
3288.07
3238.48
3173.5
3078.83
2982.48
2924.51
2886.03
2859.95
2838.2
2801.33
2752.96
2702.28
2653.39
2605.98
2561.56
2518.47
2472.25
2418.75
2354.8
2272.87
2153.35
1978.46
1761.45
1530
1339.17
1188.66
1076
986.801
924.099
883.139
857.855
838.529
812.748
777.702
745.803
732.779
735.261
743.419
751.616
752.403
742.824
720.995
686.25
635.042
574.899
513.295
460.444
420.428
396.144
384.858
377.223
370.959
364.532
359.302
357.642
357.501
358.999
359.889
359.278
357.59
355.486
354.733
354.69
355.27
355.964
355.886
355.441
354.666
354.166
354.059
354.125
354.321
354.311
354.171
353.93
353.749
353.684
353.671
353.689
353.638
353.528
353.391
353.307
353.253
353.238
353.217
3450.64
2467.18
2067.74
2042.64
2090.04
2187.38
2285
2404.54
2536.26
2657.42
2720.65
2745.26
2768.48
2791.97
2808.66
2807.48
2695.46
2401.56
2308.14
2329.64
2373.95
2427.74
2478.76
2525.31
2569.81
2614.77
2661.33
2709.83
2759.87
2811.8
2868.07
2932.77
3003.22
3052.58
3068.06
3070.03
2976.7
2734.09
2658
2675.19
2710.99
2754.61
2792.26
2822.85
2851.1
2879.89
2909.81
2940.2
2970.16
2999.28
3027.73
3056.5
3089.43
3134.55
3196.23
3233.12
3233.63
3203.45
3047.62
2906.6
2902.32
2918.62
2947.63
2977.81
3000.54
3018.62
3036.66
3056.79
3079.14
3102.71
3125.94
3147.77
3168.28
3189.08
3213.8
3250.45
3299.39
3324.41
3327.15
3304.25
3191.21
3086.36
3081.02
3093.21
3115.46
3142.81
3164.84
3180.33
3194
3209.44
3228.28
3250.3
3273.09
3293.88
3311.94
3329.16
3348.83
3376.82
3411.94
3429.57
3432.78
3420.06
3343.69
3252.75
3240.63
3249.99
3267.06
3291.42
3315.6
3332.84
3345.59
3358.2
3373.55
3392.58
3414.33
3435.54
3453.53
3469.19
3485.44
3506.73
3533.18
3549.89
3554.05
3550.01
3503.06
3417.33
3387.98
3393.14
3404.51
3422.49
3445.78
3466.01
3479.67
3490.71
3502.37
3516.16
3532.97
3552.29
3571.46
3588.43
3604.19
3621.99
3646.87
3678.8
3700.88
3708.49
3708.95
3671.16
3594.98
3568.69
3575.81
3590.53
3613.97
3643.04
3664.13
3676.27
3686.5
3697.18
3708.71
3721.55
3735.54
3750.62
3766.04
3781.49
3798.89
3821.98
3854.73
3884.42
3898.4
3907.48
3894.01
3836.13
3793.9
3799.09
3815.8
3840.41
3873.26
3904.8
3926.21
3942.74
3959.54
3978
3997.92
4020.01
4043.92
4065.82
4082.44
4094.3
4103.18
4112.72
4123.36
4125.78
4113.6
4086.78
4029.49
3934.54
3875.27
3851.01
3830.18
3815.59
3805.76
3790.25
3759.93
3722.98
3685.01
3646.78
3609.13
3573.3
3538.33
3501.94
3461.72
3417.8
3373.79
3334.67
3299.44
3245.57
3176.72
3078.89
2976.92
2912.35
2870.91
2842.48
2820.84
2786.24
2739.54
2690.85
2643.79
2597.87
2554.74
2512.99
2468.11
2415.99
2353.96
2275.82
2163.94
2000.1
1794.81
1570.68
1383.76
1234.82
1122.74
1033.61
968.377
923.338
891.769
865.703
832.309
782.332
727.502
687.137
674.654
677.617
687.769
699.279
704.459
698.945
676.296
632.546
576.348
516.914
464.44
423.652
398.403
386.153
377.419
370.691
364.027
359.087
357.632
357.58
359.176
359.96
359.307
357.54
355.434
354.695
354.651
355.231
355.88
355.791
355.353
354.592
354.136
354.05
354.123
354.312
354.296
354.152
353.915
353.753
353.698
353.696
353.711
353.655
353.541
353.396
353.305
353.252
353.241
353.215
3449.74
2482.96
2069.75
2037.88
2085.25
2185.9
2288.36
2410.77
2542.76
2661.09
2722.02
2745.87
2768.59
2790.88
2806.31
2805.51
2692.35
2399.57
2310.04
2331.24
2374.99
2428.26
2479.25
2526.56
2572.57
2619.17
2667.01
2715.81
2765.22
2816.17
2871.05
2934.33
3003.94
3052.47
3068.78
3069.79
2973.52
2730.82
2657.13
2673.58
2709.55
2753.63
2791.91
2823.16
2851.72
2880.31
2909.62
2939.29
2968.76
2997.78
3026.24
3054.93
3087.44
3131.16
3191.2
3229.29
3229.92
3203.51
3054.28
2907.5
2900.98
2917.33
2945.9
2975.79
2998.13
3015.62
3033.37
3054.05
3077.85
3103.12
3127.8
3150.43
3170.56
3189.98
3213.21
3248.53
3297.73
3324.05
3328.16
3306.59
3195.96
3087.93
3080.47
3091.42
3113.56
3141.27
3164.07
3180.03
3193.56
3208.45
3226.73
3248.32
3271.11
3292.32
3310.94