/*--------------------------------*- C++ -*----------------------------------*\
| =========                 |                                                 |
| \\      /  F ield         | OpenFOAM: The Open Source CFD Toolbox           |
|  \\    /   O peration     | Version:  2306                                  |
|   \\  /    A nd           | Website:  www.openfoam.com                      |
|    \\/     M anipulation  |                                                 |
\*---------------------------------------------------------------------------*/
FoamFile
{
    version     2.0;
    format      ascii;
    arch        "LSB;label=32;scalar=64";
    class       volVectorField;
    location    "0.13";
    object      U;
}
// * * * * * * * * * * * * * * * * * * * * * * * * * * * * * * * * * * * * * //

dimensions      [0 1 -1 0 0 0 0];

internalField   nonuniform List<vector> 
6000
(
(500 6.43497e-15 0)
(500 -1.92355e-14 0)
(500 -4.91512e-15 0)
(500 -1.5529e-14 0)
(500 6.33211e-14 0)
(500 1.2244e-13 0)
(500 8.00334e-14 0)
(500 5.49402e-15 0)
(500 -1.59993e-14 0)
(500 1.18297e-13 0)
(500 -2.37648e-14 0)
(500 -4.20956e-14 0)
(500 -1.24692e-14 0)
(500 6.83437e-15 0)
(500 9.6228e-14 0)
(500 2.6324e-14 0)
(500 -6.02781e-14 0)
(500 6.76937e-15 0)
(500 -1.19202e-13 0)
(500 -1.31549e-13 0)
(500 -5.64704e-14 0)
(500 -8.82451e-15 0)
(500 -8.54704e-14 0)
(500 -3.63981e-14 0)
(500 -1.38566e-13 0)
(500 -1.38131e-13 0)
(500 -1.83262e-13 0)
(500 -7.58006e-14 0)
(500 -2.8308e-14 0)
(500 5.35686e-14 0)
(500 2.80786e-15 0)
(500 5.81094e-14 0)
(500 1.46366e-13 0)
(500 4.9959e-14 0)
(500 5.65148e-14 0)
(500 1.73803e-14 0)
(500 6.33939e-14 0)
(500 7.95346e-14 0)
(500 -3.43204e-14 0)
(500 7.71545e-16 0)
(500 1.06762e-13 0)
(500 2.9449e-14 0)
(500 2.89175e-14 0)
(500 1.65906e-13 0)
(500 2.17123e-13 0)
(500 1.04763e-13 0)
(500 9.09498e-14 0)
(500 1.02132e-13 0)
(500 1.39006e-13 0)
(500 -2.96629e-13 0)
(500 -8.46042e-13 0)
(500 1.02756e-11 0)
(500 -5.8667e-11 0)
(500 1.99897e-10 0)
(500 -1.89163e-10 0)
(500 -1.48322e-09 0)
(500 1.09927e-08 0)
(500 -3.2764e-08 0)
(500 6.3908e-08 0)
(500 5.47465e-08 0)
(499.999 -5.37867e-07 0)
(499.999 1.83547e-06 0)
(499.996 -1.51306e-06 0)
(499.992 -3.50369e-06 0)
(499.981 2.53044e-05 0)
(499.959 -4.15976e-05 0)
(499.915 4.35398e-06 0)
(499.833 0.000237281 0)
(499.699 -0.000593747 0)
(499.519 0.000787788 0)
(499.367 1.06131e-05 0)
(499.324 -0.000164796 0)
(499.326 -0.000135801 0)
(499.347 -3.62625e-05 0)
(499.411 1.87469e-05 0)
(499.538 6.28026e-05 0)
(499.738 0.000853135 0)
(500.007 -3.7385e-05 0)
(500.33 -0.00145762 0)
(500.687 0.00145717 0)
(501.061 0.00278594 0)
(501.441 -0.00260363 0)
(501.819 -0.00315511 0)
(502.185 0.00460559 0)
(502.533 0.00548739 0)
(502.869 -0.00378685 0)
(503.19 -0.00512669 0)
(503.484 0.00438086 0)
(503.747 0.00752326 0)
(503.988 -0.00241955 0)
(504.203 -0.00660268 0)
(504.386 0.000492328 0)
(504.532 0.00706911 0)
(504.655 0.00179085 0)
(504.76 -0.0042498 0)
(504.85 -0.00325771 0)
(504.925 0.00148496 0)
(504.988 0.00349248 0)
(505.048 0.000217986 0)
(505.104 -0.00255594 0)
(505.159 -0.00189542 0)
(505.21 0.00109893 0)
(505.254 0.00209024 0)
(505.288 -0.000105784 0)
(505.307 -0.0011621 0)
(505.312 -0.00110791 0)
(505.312 -0.000425744 0)
(505.312 0.000443979 0)
(505.31 0.00052175 0)
(505.306 8.24112e-05 0)
(505.299 -0.000292462 0)
(505.288 -0.000390715 0)
(505.273 -0.000190249 0)
(505.253 0.000184266 0)
(505.231 0.000149563 0)
(505.209 -0.000330284 0)
(505.189 -0.000261709 0)
(505.172 0.000185498 0)
(505.159 0.000313204 0)
(505.15 0.000151157 0)
(505.142 -7.49219e-06 0)
(505.136 -6.96653e-05 0)
(505.13 -0.000135343 0)
(505.125 -0.000107076 0)
(505.121 -5.61285e-05 0)
(505.118 -2.02242e-05 0)
(505.115 2.48288e-05 0)
(505.114 3.83439e-05 0)
(505.112 1.92999e-05 0)
(505.111 -2.19802e-05 0)
(505.111 -8.63466e-05 0)
(505.11 -0.000110422 0)
(505.109 -6.73579e-05 0)
(505.11 -7.68888e-06 0)
(505.112 6.65128e-05 0)
(505.115 0.000109244 0)
(505.119 7.33681e-05 0)
(505.124 2.72437e-05 0)
(505.131 -6.8449e-05 0)
(505.14 -0.000121524 0)
(505.148 -0.000140458 0)
(505.157 -4.70257e-05 0)
(505.167 5.79624e-05 0)
(505.176 7.48207e-05 0)
(505.185 0.000101392 0)
(505.193 0.000109663 0)
(505.199 4.04292e-05 0)
(505.203 -2.29811e-05 0)
(505.203 -9.28593e-05 0)
(505.202 -8.90838e-05 0)
(505.202 -2.88324e-05 0)
(505.202 2.54663e-05 0)
(505.201 9.01396e-05 0)
(505.199 0.000118634 0)
(505.197 6.1912e-05 0)
(505.192 -3.86257e-05 0)
(505.186 -0.000103283 0)
(505.179 -0.00014634 0)
(505.172 -0.000132833 0)
(505.165 -6.49337e-05 0)
(505.159 1.3977e-05 0)
(505.155 8.22572e-05 0)
(505.152 0.000157559 0)
(505.151 0.000175545 0)
(505.149 9.03128e-05 0)
(505.147 1.96631e-06 0)
(505.145 -5.20858e-05 0)
(505.143 -0.000101928 0)
(505.14 -0.000119749 0)
(505.137 -8.32276e-05 0)
(505.134 -4.60053e-05 0)
(505.13 8.80346e-06 0)
(505.125 3.78771e-05 0)
(505.121 5.04837e-05 0)
(505.116 5.43052e-05 0)
(505.114 6.77121e-05 0)
(505.114 7.42078e-05 0)
(505.114 5.50162e-05 0)
(505.115 2.61427e-05 0)
(505.119 -9.25872e-06 0)
(505.124 -4.27177e-05 0)
(505.132 -4.1781e-05 0)
(505.142 -3.23964e-05 0)
(505.152 -1.82063e-05 0)
(505.161 6.52899e-05 0)
(505.168 0.000104114 0)
(505.173 1.79642e-05 0)
(505.178 -2.70158e-05 0)
(505.182 -3.51339e-05 0)
(505.186 -4.66777e-05 0)
(505.19 -4.59582e-05 0)
(505.195 -2.92401e-05 0)
(505.199 -1.31642e-06 0)
(505.2 1.59371e-05 0)
(505.2 5.53453e-05 0)
(505.2 4.0707e-05 0)
(505.2 2.26453e-05 0)
(505.199 2.36182e-06 0)
(505.197 -1.66731e-05 0)
(505.196 -2.67111e-05 0)
(505.192 -3.694e-05 0)
(505.188 -2.1594e-05 0)
(505.181 6.20926e-06 0)
(505.175 2.09763e-05 0)
(505.168 3.17932e-05 0)
(505.162 2.22758e-05 0)
(505.157 2.23919e-06 0)
(505.154 -6.00272e-05 0)
(505.153 -7.08273e-05 0)
(505.151 -4.07832e-05 0)
(505.149 -2.93228e-05 0)
(505.147 -1.8009e-06 0)
(505.145 2.53306e-05 0)
(505.142 3.05417e-05 0)
(505.141 1.30981e-05 0)
(505.139 4.58357e-06 0)
(505.138 -1.63269e-05 0)
(505.137 -3.36205e-05 0)
(505.135 -3.1241e-05 0)
(505.131 -1.86799e-06 0)
(505.125 3.44668e-05 0)
(505.119 5.69809e-05 0)
(505.113 6.29844e-05 0)
(505.11 2.70773e-05 0)
(505.109 -1.09389e-05 0)
(505.111 -3.23866e-05 0)
(505.113 -7.2109e-05 0)
(505.117 -7.43811e-05 0)
(505.122 -6.22242e-05 0)
(505.131 -3.95154e-05 0)
(505.141 6.16458e-06 0)
(505.151 6.8105e-05 0)
(505.16 9.61233e-05 0)
(505.169 7.54735e-05 0)
(505.176 3.96424e-05 0)
(505.181 -1.3403e-05 0)
(505.185 -3.62368e-05 0)
(505.189 -4.12604e-05 0)
(505.191 -3.00534e-05 0)
(505.194 -1.63527e-05 0)
(505.196 -1.89477e-06 0)
(505.199 4.60038e-05 0)
(505.201 -1.08946e-05 0)
(505.203 -2.84162e-05 0)
(505.204 -3.0181e-05 0)
(505.204 -5.0032e-06 0)
(505.204 2.4141e-05 0)
(505.203 5.34205e-05 0)
(505.2 7.20162e-05 0)
(505.196 9.10211e-05 0)
(505.19 7.94629e-05 0)
(505.183 5.72672e-05 0)
(505.176 1.03076e-05 0)
(505.169 -8.8252e-05 0)
(505.164 -0.000206384 0)
(505.159 -0.000219864 0)
(505.155 -0.000191336 0)
(505.151 -0.000120076 0)
(505.148 -1.41353e-05 0)
(505.146 9.57686e-05 0)
(505.144 0.000155271 0)
(505.143 0.000159433 0)
(505.142 0.00015955 0)
(505.142 8.68359e-05 0)
(505.142 -5.11534e-05 0)
(505.14 -0.000113609 0)
(505.137 -0.000120397 0)
(505.133 -8.57548e-05 0)
(505.128 -6.3681e-06 0)
(505.122 6.47951e-05 0)
(505.114 8.94854e-05 0)
(505.106 0.000103269 0)
(505.101 2.11826e-05 0)
(505.1 -6.98391e-05 0)
(505.101 -0.00012673 0)
(505.102 -0.00010811 0)
(505.104 -7.9471e-05 0)
(505.108 -5.31451e-05 0)
(505.115 4.38339e-05 0)
(505.126 0.000137334 0)
(505.139 0.000144392 0)
(505.153 7.6121e-05 0)
(505.167 3.12516e-05 0)
(505.177 1.28032e-05 0)
(505.184 -4.65847e-05 0)
(505.187 -9.19785e-05 0)
(505.188 -7.87885e-05 0)
(505.19 -1.1223e-05 0)
(505.193 8.47487e-05 0)
(505.197 0.000122447 0)
(505.202 0.000127957 0)
(505.207 0.000108762 0)
(505.212 5.58546e-05 0)
(505.215 -3.19845e-05 0)
(505.216 -0.000119132 0)
(505.215 -0.000143069 0)
(505.214 -0.00013748 0)
(505.211 -5.94886e-05 0)
(505.208 -2.19759e-06 0)
(505.201 -1.90336e-06 0)
(500 -4.79567e-14 0)
(500 -1.24224e-13 0)
(500 -1.12098e-14 0)
(500 7.13705e-15 0)
(500 1.20605e-13 0)
(500 3.56698e-14 0)
(500 -1.85437e-13 0)
(500 -2.17887e-13 0)
(500 -1.04538e-13 0)
(500 6.50244e-14 0)
(500 -4.90687e-14 0)
(500 -1.84284e-14 0)
(500 -1.34205e-14 0)
(500 -2.95611e-14 0)
(500 -3.82284e-14 0)
(500 -2.64479e-14 0)
(500 -2.57116e-14 0)
(500 -1.31248e-14 0)
(500 -2.2329e-13 0)
(500 -2.18738e-13 0)
(500 1.00732e-16 0)
(500 -1.22709e-13 0)
(500 -3.35194e-13 0)
(500 -3.04845e-13 0)
(500 -2.50331e-13 0)
(500 -1.98842e-13 0)
(500 -2.44738e-13 0)
(500 -1.79157e-13 0)
(500 -7.77743e-14 0)
(500 5.92235e-14 0)
(500 3.20088e-14 0)
(500 1.8216e-13 0)
(500 1.91634e-13 0)
(500 1.19295e-13 0)
(500 1.13066e-13 0)
(500 2.17407e-14 0)
(500 9.9388e-14 0)
(500 6.72882e-14 0)
(500 3.24757e-14 0)
(500 1.90308e-13 0)
(500 1.75777e-13 0)
(500 -2.89531e-14 0)
(500 6.26616e-15 0)
(500 2.51555e-13 0)
(500 3.26579e-13 0)
(500 1.26608e-13 0)
(500 -4.34367e-15 0)
(500 -1.21258e-14 0)
(500 -3.48089e-14 0)
(500 -2.72811e-13 0)
(500 -6.58071e-13 0)
(500 1.26731e-11 0)
(500 -7.91209e-11 0)
(500 2.60835e-10 0)
(500 -2.21642e-10 0)
(500 -2.60333e-09 0)
(500 1.6277e-08 0)
(500 -5.16407e-08 0)
(500 6.82881e-08 0)
(500 1.39388e-07 0)
(499.999 -1.01868e-06 0)
(499.999 2.61763e-06 0)
(499.996 -2.30894e-06 0)
(499.992 -7.70671e-06 0)
(499.981 3.36929e-05 0)
(499.959 -4.40597e-05 0)
(499.915 -5.47655e-05 0)
(499.833 0.000404019 0)
(499.699 -0.00086135 0)
(499.519 0.000683781 0)
(499.368 0.000183275 0)
(499.324 -0.00025717 0)
(499.326 -0.000234133 0)
(499.347 -0.00013228 0)
(499.411 -5.27784e-05 0)
(499.538 0.000187136 0)
(499.738 0.000801681 0)
(500.008 -0.000296052 0)
(500.33 -0.00105699 0)
(500.687 0.00203284 0)
(501.062 0.00145445 0)
(501.443 -0.00403208 0)
(501.819 -0.00252626 0)
(502.183 0.00569083 0)
(502.535 0.0038621 0)
(502.873 -0.00574891 0)
(503.19 -0.00480064 0)
(503.481 0.00670366 0)
(503.749 0.00682586 0)
(503.992 -0.00425972 0)
(504.203 -0.00764549 0)
(504.384 0.00188941 0)
(504.532 0.00744812 0)
(504.659 0.00186547 0)
(504.763 -0.00486117 0)
(504.85 -0.00347077 0)
(504.925 0.00236577 0)
(504.989 0.00382617 0)
(505.05 0.000374976 0)
(505.105 -0.00278348 0)
(505.158 -0.00197904 0)
(505.209 0.00155999 0)
(505.254 0.00263424 0)
(505.291 -0.000194139 0)
(505.308 -0.00148612 0)
(505.312 -0.00111705 0)
(505.312 -0.000217045 0)
(505.312 0.000686876 0)
(505.31 0.000721714 0)
(505.306 0.00016903 0)
(505.3 -0.000266444 0)
(505.289 -0.000411297 0)
(505.273 -0.00021346 0)
(505.253 0.000185576 0)
(505.231 0.000117016 0)
(505.209 -0.000493721 0)
(505.189 -0.000434459 0)
(505.172 0.000378008 0)
(505.159 0.000712674 0)
(505.15 0.000369601 0)
(505.143 -9.56972e-06 0)
(505.136 -0.000119366 0)
(505.131 -0.000228551 0)
(505.126 -0.000195242 0)
(505.121 -7.37661e-05 0)
(505.118 -3.11022e-06 0)
(505.115 9.18179e-05 0)
(505.114 0.000109708 0)
(505.112 4.93335e-05 0)
(505.111 -4.8657e-05 0)
(505.111 -0.000229405 0)
(505.11 -0.000331231 0)
(505.109 -0.000194115 0)
(505.11 -6.32115e-05 0)
(505.112 0.000110148 0)
(505.115 0.000281707 0)
(505.119 0.000240914 0)
(505.124 0.000145731 0)
(505.131 -5.38092e-05 0)
(505.14 -0.000260886 0)
(505.148 -0.000372694 0)
(505.158 -0.000284318 0)
(505.167 1.18786e-05 0)
(505.176 0.000186317 0)
(505.185 0.00026305 0)
(505.193 0.000257749 0)
(505.199 0.000134901 0)
(505.203 -3.39025e-06 0)
(505.203 -0.000220652 0)
(505.202 -0.000267292 0)
(505.202 -0.00017757 0)
(505.202 -6.72937e-05 0)
(505.201 7.73717e-05 0)
(505.199 0.000200581 0)
(505.197 0.000191903 0)
(505.192 6.41551e-05 0)
(505.186 -4.71543e-05 0)
(505.179 -0.000187466 0)
(505.172 -0.00028031 0)
(505.165 -0.000224393 0)
(505.159 -0.000169783 0)
(505.155 -9.91331e-05 0)
(505.153 0.000151298 0)
(505.151 0.000403861 0)
(505.149 0.00035998 0)
(505.147 0.000255715 0)
(505.145 0.000133106 0)
(505.142 -3.71133e-05 0)
(505.14 -0.000229239 0)
(505.137 -0.000306355 0)
(505.134 -0.00030992 0)
(505.13 -0.00022994 0)
(505.126 -5.62777e-05 0)
(505.121 0.00012348 0)
(505.116 0.000158915 0)
(505.114 0.000173032 0)
(505.114 0.000179993 0)
(505.114 0.00020403 0)
(505.115 0.000191236 0)
(505.119 9.6524e-05 0)
(505.124 -8.73898e-05 0)
(505.132 -0.000118699 0)
(505.142 -0.000155869 0)
(505.152 -0.000207749 0)
(505.161 -1.52215e-05 0)
(505.168 0.000201662 0)
(505.173 0.000137115 0)
(505.178 4.35814e-05 0)
(505.182 4.55798e-06 0)
(505.186 -5.83247e-05 0)
(505.19 -0.000111968 0)
(505.195 -0.000160387 0)
(505.199 -0.00016313 0)
(505.201 -0.000154692 0)
(505.201 7.3306e-06 0)
(505.2 0.000110534 0)
(505.2 0.000111341 0)
(505.199 0.000122079 0)
(505.197 0.00013351 0)
(505.195 6.72489e-05 0)
(505.192 -7.3147e-05 0)
(505.188 -0.000144297 0)
(505.181 -0.000128667 0)
(505.175 -0.000107417 0)
(505.168 -3.0571e-05 0)
(505.162 0.000102138 0)
(505.157 0.000189206 0)
(505.154 0.00015923 0)
(505.152 -4.54345e-05 0)
(505.15 -0.000108785 0)
(505.149 -0.000135874 0)
(505.147 -0.000178255 0)
(505.145 -0.000152022 0)
(505.143 -9.92115e-06 0)
(505.141 5.72505e-05 0)
(505.139 9.06708e-05 0)
(505.138 0.000138121 0)
(505.137 5.90276e-05 0)
(505.135 -6.4899e-05 0)
(505.131 -9.24025e-05 0)
(505.125 -4.78876e-05 0)
(505.119 2.54841e-05 0)
(505.113 0.000127152 0)
(505.11 8.80885e-05 0)
(505.109 0.000120834 0)
(505.11 0.000190987 0)
(505.113 3.30817e-05 0)
(505.117 -0.000106759 0)
(505.122 -0.000131233 0)
(505.131 -0.000208312 0)
(505.141 -0.000287506 0)
(505.151 -0.000126899 0)
(505.161 0.000221505 0)
(505.17 0.000298238 0)
(505.176 0.000288723 0)
(505.181 0.000275045 0)
(505.185 0.000168616 0)
(505.189 -4.38643e-05 0)
(505.191 -0.000141923 0)
(505.194 -0.000213838 0)
(505.197 -0.000228947 0)
(505.199 1.71301e-05 0)
(505.201 1.22756e-05 0)
(505.203 -1.48021e-05 0)
(505.204 -1.39655e-05 0)
(505.204 1.07369e-05 0)
(505.204 -1.54816e-05 0)
(505.203 -5.01963e-05 0)
(505.2 -4.93578e-06 0)
(505.196 8.51638e-05 0)
(505.19 0.00021602 0)
(505.183 0.000285798 0)
(505.176 0.000385327 0)
(505.169 0.000385801 0)
(505.163 -6.30767e-06 0)
(505.158 -0.000408343 0)
(505.154 -0.000583286 0)
(505.151 -0.000611003 0)
(505.149 -0.00058524 0)
(505.146 -0.000303243 0)
(505.145 8.05234e-05 0)
(505.143 0.000346574 0)
(505.142 0.000500632 0)
(505.142 0.000652904 0)
(505.142 0.000438703 0)
(505.14 5.43154e-05 0)
(505.137 -0.000177198 0)
(505.133 -0.000249873 0)
(505.128 -0.0002085 0)
(505.122 -0.000133815 0)
(505.114 5.1101e-06 0)
(505.106 0.000191099 0)
(505.102 0.00022958 0)
(505.1 0.000190472 0)
(505.1 2.26393e-05 0)
(505.101 -5.09864e-05 0)
(505.104 -0.000181531 0)
(505.108 -0.000274555 0)
(505.115 -0.000292798 0)
(505.126 -8.82256e-05 0)
(505.139 6.18028e-05 0)
(505.154 0.0001157 0)
(505.167 0.000235959 0)
(505.177 0.000371378 0)
(505.183 0.000321839 0)
(505.187 -1.24979e-05 0)
(505.188 -0.000311856 0)
(505.19 -0.00038843 0)
(505.193 -0.000292271 0)
(505.197 -0.000106348 0)
(505.202 4.23347e-05 0)
(505.207 0.000251566 0)
(505.212 0.000351528 0)
(505.215 0.000356247 0)
(505.216 0.000166426 0)
(505.215 -3.18312e-05 0)
(505.214 -0.000346127 0)
(505.211 -0.000475962 0)
(505.208 -0.000318673 0)
(505.202 -0.000206207 0)
(500 1.57967e-14 0)
(500 -4.22225e-14 0)
(500 -4.84432e-14 0)
(500 9.46464e-15 0)
(500 4.09957e-14 0)
(500 -2.76604e-14 0)
(500 -1.06226e-13 0)
(500 -9.14573e-14 0)
(500 -2.08157e-14 0)
(500 -2.56995e-15 0)
(500 2.94645e-14 0)
(500 1.22654e-14 0)
(500 -2.97483e-14 0)
(500 -1.51392e-13 0)
(500 -1.81573e-13 0)
(500 -8.13353e-14 0)
(500 6.00325e-15 0)
(500 -1.70268e-13 0)
(500 -2.39039e-13 0)
(500 -2.75427e-13 0)
(500 -4.81279e-14 0)
(500 -1.7789e-13 0)
(500 -2.8841e-13 0)
(500 -3.42967e-13 0)
(500 -2.66683e-13 0)
(500 -2.77964e-13 0)
(500 -3.11583e-13 0)
(500 -2.81126e-13 0)
(500 -2.41281e-13 0)
(500 -4.74511e-15 0)
(500 1.36329e-13 0)
(500 1.93462e-13 0)
(500 2.81024e-13 0)
(500 2.89274e-13 0)
(500 2.61152e-13 0)
(500 2.01847e-13 0)
(500 2.71451e-13 0)
(500 2.60362e-13 0)
(500 2.58733e-13 0)
(500 2.54168e-13 0)
(500 1.83972e-13 0)
(500 8.88807e-14 0)
(500 1.87835e-13 0)
(500 1.61798e-13 0)
(500 1.73902e-13 0)
(500 4.11911e-14 0)
(500 -5.14779e-14 0)
(500 5.40657e-15 0)
(500 -1.48951e-13 0)
(500 -8.09067e-14 0)
(500 -5.36371e-13 0)
(500 1.61481e-11 0)
(500 -1.07924e-10 0)
(500 3.95155e-10 0)
(500 -4.69135e-10 0)
(500 -3.01841e-09 0)
(500 2.21194e-08 0)
(500 -7.26114e-08 0)
(500 1.12539e-07 0)
(500 1.34398e-07 0)
(499.999 -1.30347e-06 0)
(499.999 3.64056e-06 0)
(499.996 -3.63694e-06 0)
(499.992 -8.73023e-06 0)
(499.981 4.11324e-05 0)
(499.959 -4.93278e-05 0)
(499.915 -9.85951e-05 0)
(499.833 0.000548572 0)
(499.699 -0.00101945 0)
(499.519 0.000652621 0)
(499.368 0.000557053 0)
(499.324 -0.000285964 0)
(499.326 -0.000338279 0)
(499.347 -0.000270525 0)
(499.411 -0.000224112 0)
(499.538 0.000268506 0)
(499.738 0.000771799 0)
(500.008 -0.000912957 0)
(500.33 -0.000345525 0)
(500.686 0.00313645 0)
(501.062 -8.98927e-05 0)
(501.443 -0.00578717 0)
(501.818 -0.00029953 0)
(502.182 0.00744029 0)
(502.536 0.00101941 0)
(502.873 -0.00848927 0)
(503.189 -0.00228765 0)
(503.48 0.00955983 0)
(503.749 0.00469378 0)
(503.993 -0.00759598 0)
(504.203 -0.00736861 0)
(504.382 0.00479301 0)
(504.531 0.00747772 0)
(504.66 -0.000111746 0)
(504.763 -0.00591329 0)
(504.851 -0.00242448 0)
(504.924 0.00374952 0)
(504.989 0.00348253 0)
(505.05 -0.00073177 0)
(505.106 -0.0034936 0)
(505.158 -0.00156504 0)
(505.208 0.00249773 0)
(505.254 0.00260232 0)
(505.291 -0.000410246 0)
(505.309 -0.00201816 0)
(505.312 -0.00121981 0)
(505.312 7.6449e-05 0)
(505.312 0.000916272 0)
(505.31 0.000963644 0)
(505.307 0.000229278 0)
(505.3 -0.000329496 0)
(505.289 -0.000433797 0)
(505.273 -0.000176811 0)
(505.253 0.000188405 0)
(505.231 -7.37761e-05 0)
(505.209 -0.000743914 0)
(505.189 -0.00043695 0)
(505.172 0.000580408 0)
(505.159 0.000926163 0)
(505.15 0.00043576 0)
(505.143 -7.14658e-05 0)
(505.136 -0.000187388 0)
(505.131 -0.000252985 0)
(505.126 -0.000196408 0)
(505.122 -7.34335e-05 0)
(505.118 9.80375e-06 0)
(505.115 0.000116265 0)
(505.114 0.000148574 0)
(505.112 9.44591e-05 0)
(505.111 -3.97342e-05 0)
(505.111 -0.000282102 0)
(505.11 -0.000462246 0)
(505.11 -0.000347545 0)
(505.11 -0.00017404 0)
(505.112 7.58145e-05 0)
(505.115 0.000339487 0)
(505.119 0.000361221 0)
(505.124 0.000263812 0)
(505.131 1.50987e-05 0)
(505.14 -0.000283446 0)
(505.148 -0.000483641 0)
(505.158 -0.000409935 0)
(505.167 -0.000175387 0)
(505.177 0.000149915 0)
(505.185 0.00040017 0)
(505.193 0.000419726 0)
(505.199 0.000316653 0)
(505.202 0.000100237 0)
(505.203 -0.000260028 0)
(505.203 -0.000321203 0)
(505.202 -0.000220406 0)
(505.202 -4.83108e-05 0)
(505.201 0.000129821 0)
(505.2 0.000251265 0)
(505.197 0.000214333 0)
(505.192 6.78765e-05 0)
(505.186 -5.63756e-05 0)
(505.179 -0.000243048 0)
(505.172 -0.000316701 0)
(505.165 -0.000271618 0)
(505.159 -0.000250824 0)
(505.155 -0.00015943 0)
(505.153 0.000189879 0)
(505.151 0.000412789 0)
(505.149 0.000388598 0)
(505.147 0.000333527 0)
(505.145 0.000220193 0)
(505.142 -8.73535e-06 0)
(505.14 -0.00023695 0)
(505.137 -0.000313704 0)
(505.134 -0.000403522 0)
(505.13 -0.000338453 0)
(505.126 -8.27134e-05 0)
(505.121 0.000106696 0)
(505.116 0.000187886 0)
(505.114 0.000232418 0)
(505.114 0.000214749 0)
(505.114 0.000210978 0)
(505.115 0.000185304 0)
(505.119 0.000119429 0)
(505.124 -8.54785e-05 0)
(505.132 -0.000154905 0)
(505.141 -0.000194095 0)
(505.152 -0.000206816 0)
(505.161 -5.9501e-05 0)
(505.168 2.91954e-05 0)
(505.173 9.45539e-05 0)
(505.177 7.80951e-05 0)
(505.182 3.04551e-05 0)
(505.186 -3.86141e-05 0)
(505.19 -9.66543e-05 0)
(505.195 -0.000134456 0)
(505.199 -0.000126178 0)
(505.201 -0.000124506 0)
(505.201 -7.6999e-05 0)
(505.2 5.96347e-05 0)
(505.2 0.000107597 0)
(505.199 0.000122854 0)
(505.197 0.000147669 0)
(505.195 0.000133835 0)
(505.192 3.4979e-05 0)
(505.187 -5.45022e-05 0)
(505.182 -8.02694e-05 0)
(505.175 -8.97665e-05 0)
(505.168 -5.24232e-05 0)
(505.162 6.65665e-05 0)
(505.157 0.00015674 0)
(505.154 0.000188975 0)
(505.152 3.55064e-05 0)
(505.15 -0.000100033 0)
(505.148 -0.000132929 0)
(505.147 -0.000170815 0)
(505.145 -0.000188694 0)
(505.143 -0.000115595 0)
(505.141 -8.61081e-06 0)
(505.14 4.12146e-05 0)
(505.138 9.00101e-05 0)
(505.136 7.34597e-05 0)
(505.135 -2.0841e-05 0)
(505.131 -3.53853e-05 0)
(505.125 -4.73817e-06 0)
(505.119 5.37797e-05 0)
(505.113 0.000161294 0)
(505.11 7.51027e-05 0)
(505.11 0.00010213 0)
(505.11 0.000203336 0)
(505.112 0.000154984 0)
(505.116 -6.83671e-05 0)
(505.122 -0.000112213 0)
(505.13 -0.000220204 0)
(505.141 -0.000354334 0)
(505.152 -0.000358753 0)
(505.161 1.29613e-05 0)
(505.17 0.000318089 0)
(505.177 0.000336745 0)
(505.181 0.000329843 0)
(505.185 0.000303186 0)
(505.188 0.000144551 0)
(505.191 -2.50753e-05 0)
(505.194 -0.000133157 0)
(505.197 -0.000255315 0)
(505.2 -0.000279545 0)
(505.202 -0.000114781 0)
(505.203 -7.48993e-05 0)
(505.204 -4.10753e-06 0)
(505.204 9.43521e-05 0)
(505.204 9.45923e-05 0)
(505.203 -8.62238e-06 0)
(505.2 -1.8313e-05 0)
(505.196 1.0186e-05 0)
(505.19 0.000139583 0)
(505.183 0.000279762 0)
(505.176 0.000356278 0)
(505.169 0.000456154 0)
(505.163 0.000280563 0)
(505.158 -8.28848e-05 0)
(505.154 -0.00050878 0)
(505.151 -0.000714938 0)
(505.149 -0.00074685 0)
(505.147 -0.000666779 0)
(505.145 -0.000304041 0)
(505.144 0.000258401 0)
(505.143 0.000474052 0)
(505.142 0.000621709 0)
(505.141 0.00056551 0)
(505.139 0.000315891 0)
(505.137 5.01522e-05 0)
(505.133 -0.000168502 0)
(505.128 -0.000300255 0)
(505.122 -0.000248091 0)
(505.114 -7.05723e-05 0)
(505.107 2.55778e-05 0)
(505.102 6.37441e-05 0)
(505.1 7.89098e-05 0)
(505.1 4.28534e-05 0)
(505.101 7.02047e-05 0)
(505.103 -5.92624e-05 0)
(505.108 -0.000163701 0)
(505.115 -0.000176956 0)
(505.126 -0.00012889 0)
(505.14 -0.00011321 0)
(505.154 -2.02835e-05 0)
(505.167 0.000320395 0)
(505.177 0.000588209 0)
(505.183 0.000410218 0)
(505.186 -3.17811e-05 0)
(505.188 -0.000299016 0)
(505.19 -0.000397455 0)
(505.193 -0.000316874 0)
(505.198 -0.00014622 0)
(505.203 7.31471e-05 0)
(505.208 0.000264223 0)
(505.212 0.000418738 0)
(505.214 0.000495554 0)
(505.215 0.000382157 0)
(505.214 0.000163382 0)
(505.213 -0.000223762 0)
(505.211 -0.000456415 0)
(505.208 -0.000437262 0)
(505.202 -0.000360898 0)
(500 6.26348e-14 0)
(500 2.10491e-14 0)
(500 -1.30113e-13 0)
(500 -1.79409e-13 0)
(500 -1.47467e-13 0)
(500 -1.08244e-13 0)
(500 -2.55993e-14 0)
(500 3.27174e-14 0)
(500 1.36987e-13 0)
(500 2.01465e-13 0)
(500 6.44109e-14 0)
(500 3.90989e-14 0)
(500 4.85987e-14 0)
(500 -1.84848e-13 0)
(500 -1.73223e-13 0)
(500 -1.55502e-13 0)
(500 -1.89084e-13 0)
(500 -5.42894e-13 0)
(500 -5.04336e-13 0)
(500 -4.77047e-13 0)
(500 -3.87711e-13 0)
(500 -3.95855e-13 0)
(500 -4.2698e-13 0)
(500 -2.97338e-13 0)
(500 -2.44092e-13 0)
(500 -2.38806e-13 0)
(500 -3.40019e-13 0)
(500 -2.42961e-13 0)
(500 -1.07035e-13 0)
(500 2.1484e-14 0)
(500 2.57539e-13 0)
(500 1.89878e-13 0)
(500 2.45789e-13 0)
(500 3.12771e-13 0)
(500 3.31882e-13 0)
(500 3.52769e-13 0)
(500 4.29456e-13 0)
(500 4.39349e-13 0)
(500 4.31284e-13 0)
(500 3.93246e-13 0)
(500 2.13095e-13 0)
(500 4.26125e-14 0)
(500 7.59045e-14 0)
(500 1.16512e-14 0)
(500 2.25028e-14 0)
(500 9.40466e-15 0)
(500 -4.9405e-14 0)
(500 5.66597e-14 0)
(500 -3.40495e-13 0)
(500 8.31205e-14 0)
(500 -5.53649e-13 0)
(500 1.78257e-11 0)
(500 -1.2943e-10 0)
(500 5.09624e-10 0)
(500 -7.78472e-10 0)
(500 -2.90019e-09 0)
(500 2.47023e-08 0)
(500 -8.61484e-08 0)
(500 1.5075e-07 0)
(500 9.2842e-08 0)
(499.999 -1.38618e-06 0)
(499.999 4.05644e-06 0)
(499.996 -4.42722e-06 0)
(499.992 -8.30427e-06 0)
(499.981 3.96042e-05 0)
(499.959 -3.74402e-05 0)
(499.915 -0.000145516 0)
(499.833 0.000621319 0)
(499.699 -0.000981102 0)
(499.519 0.000304633 0)
(499.368 0.000992448 0)
(499.324 -0.000203665 0)
(499.326 -0.000343456 0)
(499.347 -0.000361473 0)
(499.41 -0.000376827 0)
(499.538 0.000315789 0)
(499.739 0.000494449 0)
(500.008 -0.00140694 0)
(500.33 0.000745219 0)
(500.686 0.00375138 0)
(501.062 -0.00211542 0)
(501.443 -0.00633955 0)
(501.817 0.00291474 0)
(502.181 0.00772667 0)
(502.537 -0.00261461 0)
(502.873 -0.00954704 0)
(503.188 0.00208943 0)
(503.479 0.0107786 0)
(503.751 0.00133647 0)
(503.992 -0.0101398 0)
(504.203 -0.00471239 0)
(504.38 0.00740801 0)
(504.532 0.00597295 0)
(504.66 -0.00263203 0)
(504.763 -0.00603174 0)
(504.85 -4.84794e-05 0)
(504.923 0.00470369 0)
(504.99 0.00237272 0)
(505.051 -0.00210897 0)
(505.105 -0.00382476 0)
(505.158 -0.000400864 0)
(505.207 0.00318934 0)
(505.255 0.00210723 0)
(505.292 -0.00111252 0)
(505.309 -0.00221058 0)
(505.312 -0.000946119 0)
(505.312 0.000430696 0)
(505.311 0.00103402 0)
(505.31 0.000847016 0)
(505.307 4.14285e-06 0)
(505.3 -0.000335125 0)
(505.289 -0.000218103 0)
(505.273 9.70573e-05 0)
(505.254 0.000344936 0)
(505.232 -0.000191953 0)
(505.209 -0.000876067 0)
(505.189 -0.000342869 0)
(505.172 0.000733348 0)
(505.159 0.000976342 0)
(505.15 0.000286869 0)
(505.143 -0.000245046 0)
(505.136 -0.000313374 0)
(505.131 -0.000273572 0)
(505.126 -6.39141e-05 0)
(505.122 7.0792e-05 0)
(505.118 0.000131052 0)
(505.115 0.000173827 0)
(505.114 0.000145794 0)
(505.112 0.000104321 0)
(505.111 -5.46575e-06 0)
(505.111 -0.000263053 0)
(505.11 -0.000461081 0)
(505.11 -0.000394302 0)
(505.111 -0.000242931 0)
(505.112 4.98799e-05 0)
(505.115 0.000352749 0)
(505.119 0.000387389 0)
(505.124 0.000314615 0)
(505.131 8.4077e-05 0)
(505.139 -0.000272948 0)
(505.148 -0.000512351 0)
(505.158 -0.000412343 0)
(505.168 -0.000170125 0)
(505.177 0.000130117 0)
(505.185 0.000432672 0)
(505.193 0.000505704 0)
(505.199 0.000281435 0)
(505.202 -6.3471e-05 0)
(505.203 -0.000378023 0)
(505.203 -0.000370184 0)
(505.203 -0.000232282 0)
(505.202 2.84834e-05 0)
(505.201 0.000252823 0)
(505.2 0.000323153 0)
(505.197 0.00018667 0)
(505.192 2.75285e-05 0)
(505.186 -0.000102267 0)
(505.179 -0.000277827 0)
(505.172 -0.000311468 0)
(505.165 -0.000251064 0)
(505.159 -0.000149788 0)
(505.155 1.71335e-05 0)
(505.153 0.000182633 0)
(505.151 0.000258829 0)
(505.149 0.000253513 0)
(505.147 0.000212164 0)
(505.145 0.000155502 0)
(505.142 4.23621e-05 0)
(505.139 -5.97958e-05 0)
(505.137 -0.000114503 0)
(505.134 -0.00023246 0)
(505.131 -0.00028605 0)
(505.126 -0.000185575 0)
(505.121 -5.704e-05 0)
(505.116 7.12885e-05 0)
(505.115 0.000129699 0)
(505.114 0.000128837 0)
(505.114 0.000159749 0)
(505.115 0.000188745 0)
(505.118 0.000188172 0)
(505.124 0.000104924 0)
(505.132 -6.25206e-05 0)
(505.141 -0.000115493 0)
(505.151 -0.000168419 0)
(505.161 -0.000200078 0)
(505.169 -0.00021273 0)
(505.174 -5.42393e-05 0)
(505.178 3.50899e-05 0)
(505.182 2.76367e-05 0)
(505.186 3.01981e-05 0)
(505.19 4.05482e-05 0)
(505.195 2.40553e-05 0)
(505.199 -8.067e-07 0)
(505.201 -6.51415e-05 0)
(505.201 -0.000170404 0)
(505.201 -0.000111606 0)
(505.2 1.91941e-05 0)
(505.199 4.84821e-05 0)
(505.197 9.45596e-05 0)
(505.195 0.000117908 0)
(505.192 7.32206e-05 0)
(505.187 5.59382e-05 0)
(505.182 4.50719e-05 0)
(505.175 1.48214e-05 0)
(505.168 -2.07981e-05 0)
(505.162 1.49244e-05 0)
(505.158 9.21637e-05 0)
(505.154 0.000159985 0)
(505.151 0.000116022 0)
(505.15 -9.26975e-05 0)
(505.148 -0.000145787 0)
(505.147 -0.000160293 0)
(505.145 -0.000189 0)
(505.143 -0.000170613 0)
(505.141 -9.40883e-05 0)
(505.14 -3.2196e-05 0)
(505.138 4.40419e-05 0)
(505.136 7.61847e-05 0)
(505.134 -2.1625e-05 0)
(505.131 -4.19322e-05 0)
(505.125 1.2476e-05 0)
(505.119 8.92082e-05 0)
(505.113 0.000183192 0)
(505.111 8.35134e-05 0)
(505.11 0.000150961 0)
(505.111 0.000237348 0)
(505.112 0.000239819 0)
(505.116 2.61954e-05 0)
(505.122 -0.000121324 0)
(505.13 -0.000208099 0)
(505.14 -0.000399489 0)
(505.152 -0.000526984 0)
(505.162 -0.00033396 0)
(505.17 0.000191391 0)
(505.177 0.000298839 0)
(505.181 0.00031483 0)
(505.184 0.000336613 0)
(505.188 0.000299017 0)
(505.191 0.000159701 0)
(505.193 1.05254e-05 0)
(505.197 -0.000224806 0)
(505.2 -0.000388008 0)
(505.202 -0.000299489 0)
(505.204 -0.000156606 0)
(505.204 -4.41977e-05 0)
(505.204 0.000141719 0)
(505.204 0.000192912 0)
(505.203 0.000129111 0)
(505.2 5.9568e-05 0)
(505.196 2.47086e-05 0)
(505.191 4.02433e-05 0)
(505.184 0.000149098 0)
(505.176 0.00019017 0)
(505.169 0.000229897 0)
(505.162 0.0002237 0)
(505.157 6.38452e-05 0)
(505.153 -0.000193421 0)
(505.151 -0.000566563 0)
(505.149 -0.000635658 0)
(505.147 -0.000543559 0)
(505.146 -0.000295824 0)
(505.144 2.30904e-05 0)
(505.143 0.000252142 0)
(505.142 0.000431678 0)
(505.141 0.0005083 0)
(505.139 0.000367611 0)
(505.136 0.000168255 0)
(505.133 1.10082e-05 0)
(505.128 -2.86955e-05 0)
(505.122 -9.57064e-05 0)
(505.115 -0.000128893 0)
(505.107 -0.000174891 0)
(505.102 -0.00017022 0)
(505.1 -7.77919e-05 0)
(505.1 3.03433e-05 0)
(505.101 7.99343e-05 0)
(505.103 7.77011e-05 0)
(505.107 2.42424e-05 0)
(505.115 5.58705e-05 0)
(505.126 1.34565e-05 0)
(505.14 -9.03504e-05 0)
(505.155 2.66497e-06 0)
(505.168 0.000279834 0)
(505.177 0.000311945 0)
(505.182 -9.09289e-05 0)
(505.185 -0.000259732 0)
(505.188 -0.000268881 0)
(505.19 -0.000174608 0)
(505.194 -5.51098e-05 0)
(505.198 7.6784e-05 0)
(505.203 0.000145667 0)
(505.208 0.000214193 0)
(505.212 0.000311056 0)
(505.214 0.000375583 0)
(505.214 0.000248526 0)
(505.214 2.20628e-05 0)
(505.213 -0.00024554 0)
(505.211 -0.000367496 0)
(505.209 -0.00037149 0)
(505.203 -0.000296961 0)
(500 2.14042e-15 0)
(500 -2.65675e-13 0)
(500 -2.54584e-13 0)
(500 -3.33733e-13 0)
(500 -2.19693e-13 0)
(500 -9.96703e-14 0)
(500 -7.12606e-14 0)
(500 7.47978e-15 0)
(500 2.31774e-13 0)
(500 2.62145e-13 0)
(500 4.8597e-14 0)
(500 2.00751e-14 0)
(500 -5.28386e-15 0)
(500 -1.65511e-13 0)
(500 -1.82421e-13 0)
(500 -4.09641e-13 0)
(500 -5.81507e-13 0)
(500 -6.93417e-13 0)
(500 -8.55939e-13 0)
(500 -7.74715e-13 0)
(500 -6.7221e-13 0)
(500 -5.74974e-13 0)
(500 -5.47278e-13 0)
(500 -4.55613e-13 0)
(500 -3.68759e-13 0)
(500 -2.37145e-13 0)
(500 -2.59092e-13 0)
(500 -2.1747e-13 0)
(500 -1.47715e-13 0)
(500 4.29116e-14 0)
(500 1.41545e-13 0)
(500 1.72691e-13 0)
(500 1.4919e-13 0)
(500 2.28567e-13 0)
(500 2.90929e-13 0)
(500 3.66606e-13 0)
(500 4.65143e-13 0)
(500 5.00948e-13 0)
(500 4.5627e-13 0)
(500 3.61929e-13 0)
(500 1.60718e-13 0)
(500 -1.25354e-13 0)
(500 -6.94131e-14 0)
(500 3.67615e-14 0)
(500 4.3355e-14 0)
(500 1.48217e-14 0)
(500 1.00089e-14 0)
(500 4.98558e-15 0)
(500 -4.77708e-13 0)
(500 2.70218e-13 0)