/*--------------------------------*- C++ -*----------------------------------*\
| =========                 |                                                 |
| \\      /  F ield         | OpenFOAM: The Open Source CFD Toolbox           |
|  \\    /   O peration     | Version:  2306                                  |
|   \\  /    A nd           | Website:  www.openfoam.com                      |
|    \\/     M anipulation  |                                                 |
\*---------------------------------------------------------------------------*/
FoamFile
{
    version     2.0;
    format      ascii;
    arch        "LSB;label=32;scalar=64";
    class       volVectorField;
    location    "0.13";
    object      U;
}
// * * * * * * * * * * * * * * * * * * * * * * * * * * * * * * * * * * * * * //

dimensions      [0 1 -1 0 0 0 0];

internalField   nonuniform List<vector> 
6000
(
(-2374.93 0.178905 0)
(-786.823 -0.990859 0)
(-248.46 -8.91966 0)
(-272.908 -5.44173 0)
(-237.268 -2.78502 0)
(-181.81 -0.404246 0)
(-76.2639 0.403375 0)
(41.2284 0.492354 0)
(167.317 0.854972 0)
(279.404 1.4691 0)
(335.408 1.60222 0)
(345.889 1.23407 0)
(347.591 0.826982 0)
(346.462 -0.0145926 0)
(342.475 -0.337763 0)
(318.037 -0.219656 0)
(196.311 0.175616 0)
(-97.9886 0.897625 0)
(-192.48 1.18447 0)
(-179.057 1.48338 0)
(-145.107 1.65961 0)
(-101.348 1.66577 0)
(-62.3632 1.69735 0)
(-29.9009 1.49234 0)
(-0.981719 1.37112 0)
(27.5263 1.48111 0)
(58.059 1.5241 0)
(91.6664 1.84348 0)
(128.326 1.96112 0)
(167.717 2.06117 0)
(209.827 2.46455 0)
(256.311 2.59654 0)
(306.173 2.63108 0)
(337.37 2.5342 0)
(340.927 2.57216 0)
(326.575 2.47328 0)
(247.305 2.28473 0)
(25.0744 1.94863 0)
(-75.6444 1.78052 0)
(-67.8228 1.74657 0)
(-43.9594 1.66954 0)
(-10.5605 1.19604 0)
(16.7817 0.450135 0)
(35.4221 -0.365522 0)
(50.005 -0.825294 0)
(64.5153 -1.20985 0)
(81.0106 -1.68463 0)
(99.6696 -2.09082 0)
(119.478 -2.21919 0)
(139.038 -2.14689 0)
(157.324 -1.83965 0)
(174.829 -1.35366 0)
(195.068 -0.783927 0)
(225.399 -0.126094 0)
(267.221 0.369005 0)
(288.112 0.585398 0)
(279.452 0.532596 0)
(238.124 0.00136729 0)
(92.0274 -0.457194 0)
(-15.937 -0.695864 0)
(-19.3951 -0.725569 0)
(-7.29574 -0.680659 0)
(15.8768 -0.754315 0)
(38.4775 -1.02943 0)
(53.1639 -1.31269 0)
(63.1141 -1.56992 0)
(73.042 -1.65198 0)
(85.3759 -1.63545 0)
(100.409 -1.72395 0)
(116.896 -1.76804 0)
(132.926 -1.84108 0)
(147.188 -1.9617 0)
(160.052 -2.12976 0)
(174.001 -2.42783 0)
(194.006 -2.69299 0)
(227.104 -2.71847 0)
(255.75 -2.26914 0)
(258.56 -1.62546 0)
(247.813 -0.756914 0)
(185.811 -0.113487 0)
(61.646 0.210299 0)
(17.2183 0.45855 0)
(18.9314 0.599757 0)
(27.3464 0.680308 0)
(44.706 0.642119 0)
(63.0338 0.6425 0)
(76.0018 0.76248 0)
(85.7012 0.899179 0)
(95.4975 0.946596 0)
(106.793 0.932755 0)
(119.681 0.843214 0)
(133.314 0.658395 0)
(146.117 0.475888 0)
(157.062 0.31373 0)
(167.033 0.387487 0)
(178.56 0.341003 0)
(195.501 0.10203 0)
(223.61 -0.297626 0)
(252.209 -0.664945 0)
(258.806 -0.695891 0)
(253.434 -0.470883 0)
(217.4 0.24247 0)
(116.228 0.861857 0)
(52.7987 1.13172 0)
(48.7315 1.30216 0)
(52.1573 1.49667 0)
(63.3283 1.6129 0)
(80.0964 1.68992 0)
(93.704 1.87471 0)
(101.67 2.06448 0)
(107.629 2.15347 0)
(114.178 2.17421 0)
(122.331 2.24374 0)
(132.208 2.31122 0)
(142.464 2.3662 0)
(151.003 2.42706 0)
(157.566 2.48673 0)
(164.18 2.58361 0)
(173.984 2.70555 0)
(191.84 2.78144 0)
(221.094 2.71864 0)
(239.604 2.50232 0)
(241.052 2.3088 0)
(228.894 2.09268 0)
(175.135 1.85266 0)
(88.0947 1.74817 0)
(61.755 1.76598 0)
(62.2436 1.71909 0)
(69.1391 1.54642 0)
(84.5061 1.41201 0)
(101.081 1.24761 0)
(110.296 0.996179 0)
(114.253 0.764834 0)
(117.117 0.455113 0)
(121.199 -0.00726986 0)
(128.431 -0.6183 0)
(139.709 -1.28082 0)
(152.216 -1.76956 0)
(161.211 -2.11596 0)
(166.4 -2.43423 0)
(170.891 -2.75695 0)
(176.904 -2.98013 0)
(187.32 -2.94393 0)
(200.475 -2.3009 0)
(205.898 -1.22643 0)
(203.639 -0.202006 0)
(186.29 0.738291 0)
(130.481 1.23943 0)
(66.2367 1.5698 0)
(52.2708 1.73507 0)
(53.5231 1.8448 0)
(59.9754 1.96507 0)
(74.43 2.07352 0)
(91.8687 2.17039 0)
(102.634 2.19515 0)
(106.978 2.15482 0)
(109.663 2.07059 0)
(112.941 1.91899 0)
(118.487 1.69 0)
(127.865 1.37603 0)
(140.923 0.991109 0)
(153.975 0.538014 0)
(163.062 -0.00632246 0)
(169.011 -0.540598 0)
(174.59 -0.971918 0)
(182.471 -1.31734 0)
(195.349 -1.62917 0)
(207.887 -1.95019 0)
(212.849 -2.29042 0)
(208.661 -2.56331 0)
(183.055 -2.72351 0)
(119.064 -2.74762 0)
(74.9167 -2.78177 0)
(68.6524 -2.80481 0)
(73.3555 -2.79388 0)
(83.6253 -2.63114 0)
(97.3426 -2.19072 0)
(105.691 -1.61879 0)
(109.236 -1.0243 0)
(108.654 -0.46717 0)
(107.241 0.219624 0)
(106.785 0.769306 0)
(108.626 1.04403 0)
(112.286 1.25705 0)
(119.028 1.4967 0)
(128.349 1.73303 0)
(137.7 1.93646 0)
(145.676 2.10067 0)
(153.447 2.18574 0)
(163.724 2.16968 0)
(178.592 2.06207 0)
(195.074 1.87364 0)
(203.566 1.59507 0)
(197.095 1.31862 0)
(173.273 0.908591 0)
(122.074 0.334546 0)
(87.0515 -0.211642 0)
(77.9615 -0.604828 0)
(83.5955 -0.882908 0)
(101.558 -1.17011 0)
(122.203 -1.47145 0)
(131.157 -1.70152 0)
(130.342 -1.8326 0)
(127.093 -1.92474 0)
(124.176 -1.91748 0)
(122.937 -1.82039 0)
(123.011 -1.64955 0)
(125.151 -1.32477 0)
(130.066 -0.934337 0)
(137.147 -0.572332 0)
(145.31 -0.354854 0)
(155.762 -0.269053 0)
(171.623 -0.40179 0)
(189.224 -0.642005 0)
(197.286 -0.941012 0)
(188.212 -1.1032 0)
(160.037 -1.16659 0)
(108.772 -1.17129 0)
(83.2441 -1.18506 0)
(77.8851 -1.21353 0)
(87.0089 -1.22034 0)
(106.338 -1.16366 0)
(121.307 -1.00615 0)
(123.359 -0.757389 0)
(119.06 -0.534906 0)
(114.456 -0.172548 0)
(112.24 0.211697 0)
(113.92 0.403422 0)
(120.45 0.411703 0)
(130.177 0.263228 0)
(142.532 -0.218337 0)
(159.754 -0.878902 0)
(179.741 -1.58582 0)
(188.864 -2.66832 0)
(176.131 -3.44914 0)
(138.992 -4.03185 0)
(103.649 -4.43561 0)
(91.492 -4.37563 0)
(102.068 -3.91465 0)
(126.55 -3.17142 0)
(147.969 -2.29553 0)
(154.508 -1.56918 0)
(153.544 -1.08213 0)
(153.177 -0.144644 0)
(156.64 0.88026 0)
(167.557 1.7949 0)
(183.191 2.83659 0)
(197.596 3.95877 0)
(202.472 4.5511 0)
(190.771 4.49087 0)
(159.167 3.6295 0)
(123.069 2.86896 0)
(107.891 2.26778 0)
(111.838 1.71238 0)
(123.367 1.2502 0)
(139.073 0.840304 0)
(146.158 0.355762 0)
(142.274 -0.0426044 0)
(133.323 -0.356387 0)
(122.17 -0.515995 0)
(119.942 -0.581013 0)
(122.921 -0.613803 0)
(131.918 -0.624361 0)
(141.1 -0.649825 0)
(143.996 -0.665592 0)
(142.089 -0.676925 0)
(137.966 -0.654432 0)
(134.398 -0.585747 0)
(133.678 -0.462991 0)
(134.957 -0.245619 0)
(138.173 0.0069339 0)
(140.145 0.100513 0)
(139.7 0.0828996 0)
(138.303 -0.0635511 0)
(136.937 -0.175351 0)
(136.66 -0.201455 0)
(137.15 -0.195039 0)
(138.129 -0.112851 0)
(138.411 -0.0169579 0)
(138.073 0.0389319 0)
(137.385 0.0610324 0)
(137.047 0.0396843 0)
(137.162 0.0141432 0)
(137.792 -0.00846162 0)
(138.577 -0.0160204 0)
(138.743 -0.00663912 0)
(138.528 0.0122718 0)
(137.841 0.0318728 0)
(137.025 0.0447874 0)
(136.807 0.0513828 0)
(136.871 0.0562053 0)
(137.202 0.0621004 0)
(137.718 0.0655651 0)
(138.007 0.0629931 0)
(138.059 0.0473717 0)
(138.038 0.0192203 0)
(138.034 -0.0118466 0)
(138.043 -0.0360205 0)
(138.053 -0.0410552 0)
(137.911 -0.043897 0)
(-2375.66 0.435619 0)
(-791.61 -9.7866 0)
(-240.158 -16.5738 0)
(-265.969 -11.2528 0)
(-233.268 -3.52455 0)
(-181.333 0.681409 0)
(-77.4554 2.71372 0)
(39.5109 3.70552 0)
(165.969 3.96285 0)
(278.924 4.06176 0)
(336.148 3.80484 0)
(347.421 2.8688 0)
(349.435 2.19805 0)
(348.495 0.377893 0)
(344.889 -1.62321 0)
(321.279 -2.58864 0)
(201.732 -1.10779 0)
(-94.816 2.72502 0)
(-192.719 4.64495 0)
(-179.911 5.21509 0)
(-146.363 5.27783 0)
(-102.883 4.97873 0)
(-63.9586 4.70903 0)
(-31.2513 3.98885 0)
(-1.83394 3.73473 0)
(27.3703 4.14896 0)
(58.5587 4.27515 0)
(92.5724 4.24477 0)
(129.294 3.86735 0)
(168.522 4.29881 0)
(210.59 4.59875 0)
(257.192 4.13343 0)
(307.244 3.7793 0)
(339.364 4.01047 0)
(343.36 5.35621 0)
(329.684 7.07626 0)
(249.29 8.27969 0)
(24.3293 7.51161 0)
(-76.2662 6.42913 0)
(-68.8124 5.92594 0)
(-45.3904 5.36935 0)
(-12.28 4.09196 0)
(14.719 2.24158 0)
(33.2781 0.512947 0)
(48.034 -1.01513 0)
(62.8826 -2.12075 0)
(79.5124 -3.16122 0)
(98.0432 -4.34893 0)
(117.672 -5.315 0)
(137.225 -6.06964 0)
(155.873 -6.38531 0)
(174.135 -6.34184 0)
(195.306 -5.96053 0)
(226.492 -5.09911 0)
(268.815 -3.60951 0)
(289.378 -1.89126 0)
(281.731 -0.44089 0)
(239.693 0.799856 0)
(91.6034 0.268166 0)
(-15.7456 -0.545007 0)
(-18.9693 -0.790615 0)
(-7.46529 -1.04648 0)
(15.1551 -1.61968 0)
(37.4748 -2.63351 0)
(52.2812 -3.6553 0)
(62.677 -4.275 0)
(73.062 -4.29822 0)
(85.6662 -4.20601 0)
(100.696 -4.46602 0)
(116.896 -4.81356 0)
(132.534 -5.36506 0)
(146.498 -6.10832 0)
(159.281 -6.97685 0)
(173.344 -7.93586 0)
(193.599 -8.88856 0)
(227.363 -9.59113 0)
(257.088 -9.46315 0)
(260.468 -8.407 0)
(250.212 -7.14157 0)
(189.077 -5.11454 0)
(63.9373 -2.28791 0)
(18.1965 -1.06694 0)
(19.8226 -0.508861 0)
(28.2925 0.0569842 0)
(45.6395 0.391201 0)
(63.9498 0.853671 0)
(76.734 1.6431 0)
(86.1206 2.14218 0)
(95.5913 2.26743 0)
(106.627 2.23226 0)
(119.373 2.07151 0)
(132.931 1.74797 0)
(145.621 1.38443 0)
(156.386 1.0534 0)
(166.153 0.548355 0)
(177.532 -0.0643156 0)
(194.185 -0.913555 0)
(222.07 -2.09889 0)
(251.252 -3.2972 0)
(258.186 -3.89367 0)
(252.822 -4.50329 0)
(217.722 -4.73745 0)
(117.671 -3.06947 0)
(53.2944 -1.64522 0)
(48.9962 -1.17967 0)
(52.6273 -0.644124 0)
(63.9741 -0.18683 0)
(80.9297 0.219064 0)
(94.7354 0.844543 0)
(102.807 1.66859 0)
(108.713 2.18158 0)
(115.04 2.43 0)
(123.01 2.69276 0)
(132.881 2.93664 0)
(143.312 3.20599 0)
(152.116 3.63814 0)
(158.874 4.29695 0)
(165.53 5.03649 0)
(175.17 5.7772 0)
(192.696 6.42539 0)
(221.391 6.74209 0)
(239.371 6.34505 0)
(240.654 5.81581 0)
(228.547 5.30216 0)
(174.795 4.77202 0)
(88.1394 4.36326 0)
(62.1611 4.49936 0)
(62.5926 4.41381 0)
(69.2161 4.06275 0)
(84.3561 3.70132 0)
(100.967 3.19002 0)
(110.249 2.57709 0)
(114.275 2.14396 0)
(117.228 1.69589 0)
(121.253 1.24152 0)
(128.174 0.872965 0)
(138.788 0.371645 0)
(150.453 -0.647926 0)
(158.846 -2.3704 0)
(164.023 -4.22946 0)
(168.771 -6.02799 0)
(175.192 -7.74739 0)
(186.612 -8.96482 0)
(202.273 -9.00712 0)
(208.733 -7.15471 0)
(207.364 -4.77865 0)
(190.651 -1.60962 0)
(133.958 1.58432 0)
(67.6777 3.63498 0)
(53.1234 4.50688 0)
(54.3306 5.03729 0)
(60.724 5.59023 0)
(75.0797 6.05356 0)
(92.5284 6.43952 0)
(103.271 6.71549 0)
(107.546 6.84971 0)
(110.215 6.89437 0)
(113.437 6.831 0)
(118.819 6.61098 0)
(127.951 6.1466 0)
(140.769 5.37168 0)
(153.632 4.35282 0)
(162.581 3.27498 0)
(168.401 2.27587 0)
(173.901 1.35151 0)
(181.751 0.590454 0)
(194.646 0.13572 0)
(206.927 -0.237174 0)
(211.695 -0.78756 0)
(207.273 -1.37906 0)
(181.445 -2.28787 0)
(117.229 -3.38659 0)
(73.4337 -4.42341 0)
(67.359 -5.25903 0)
(72.1527 -6.1306 0)
(82.9314 -7.0059 0)
(97.8336 -6.98861 0)
(106.957 -5.95972 0)
(110.611 -4.61277 0)
(110.13 -3.17757 0)
(108.575 -1.40661 0)
(108.188 0.183865 0)
(110.353 1.58389 0)
(114.04 2.90403 0)
(120.619 4.00481 0)
(129.825 5.07941 0)
(139 6.17889 0)
(146.813 7.0451 0)
(154.31 7.67595 0)
(164.253 8.02799 0)
(178.791 8.07819 0)
(194.943 7.80981 0)
(203.176 7.0592 0)
(196.449 6.19121 0)
(172.23 4.93966 0)
(120.591 3.59563 0)
(85.5549 2.16209 0)
(76.3987 0.828301 0)
(82.1462 -0.418012 0)
(100.254 -1.83402 0)
(121.227 -3.08225 0)
(130.55 -4.04695 0)
(129.911 -4.62195 0)
(126.805 -5.26335 0)
(124.192 -5.73724 0)
(123.267 -5.81518 0)
(123.786 -5.61915 0)
(126.577 -4.95482 0)
(131.9 -3.59802 0)
(138.718 -2.00936 0)
(146.192 -0.807057 0)
(155.959 -0.200372 0)
(171.373 0.0147946 0)
(188.738 -0.124563 0)
(196.662 -0.458862 0)
(187.631 -0.77582 0)
(159.565 -1.07545 0)
(108.218 -1.31851 0)
(82.4476 -1.61025 0)
(76.9636 -1.9366 0)
(86.01 -2.29004 0)
(105.476 -2.72965 0)
(120.934 -2.9244 0)
(123.346 -2.67204 0)
(119.367 -2.35561 0)
(115.251 -1.66412 0)
(113.417 -0.938112 0)
(115.387 0.126386 0)
(121.76 1.04274 0)
(130.999 1.36494 0)
(142.652 1.03221 0)
(158.717 -0.568992 0)
(178.495 -3.79491 0)
(187.81 -7.70308 0)
(177.213 -10.7776 0)
(140.17 -11.9527 0)
(102.887 -11.9534 0)
(88.7868 -12.5868 0)
(99.5117 -12.3237 0)
(124.771 -11.1575 0)
(147.102 -8.55012 0)
(153.788 -5.70652 0)
(152.914 -3.96627 0)
(153.256 -2.20707 0)
(157.591 -0.343321 0)
(169.062 2.31645 0)
(184.448 6.94486 0)
(198.477 12.0377 0)
(201.979 15.1515 0)
(189.061 14.8807 0)
(158.049 11.8837 0)
(123.825 8.3634 0)
(109.09 6.41752 0)
(112.336 5.31914 0)
(123.194 4.10751 0)
(138.711 2.78497 0)
(145.63 1.14687 0)
(141.788 -0.0815801 0)
(133.012 -1.40429 0)
(122.339 -2.06559 0)
(120.195 -2.0425 0)
(123.082 -1.78987 0)
(131.908 -1.40007 0)
(140.903 -0.906522 0)
(143.596 -0.642822 0)
(141.441 -0.681393 0)
(137.178 -1.11816 0)
(134.05 -1.52578 0)
(133.637 -1.52797 0)
(135.512 -1.20101 0)
(138.935 -0.355469 0)
(140.443 0.265667 0)
(139.687 0.463318 0)
(137.874 0.403965 0)
(136.429 -0.0372751 0)
(136.224 -0.361691 0)
(136.992 -0.591837 0)
(138.283 -0.554493 0)
(138.684 -0.316218 0)
(138.342 -0.0714549 0)
(137.477 0.146814 0)
(136.988 0.181729 0)
(137.051 0.131228 0)
(137.648 0.0315297 0)
(138.515 -0.0557151 0)
(138.747 -0.0639609 0)
(138.562 -0.0502273 0)
(137.914 -0.0061897 0)
(137.083 0.0481044 0)
(136.847 0.0728307 0)
(136.911 0.0887531 0)
(137.251 0.118439 0)
(137.771 0.162569 0)
(138.025 0.193383 0)
(138.038 0.193889 0)
(137.983 0.164876 0)
(137.945 0.0933968 0)
(137.951 0.00261745 0)
(137.986 -0.0709972 0)
(137.873 -0.106766 0)
(-2376.56 0.23699 0)
(-802.274 0.210673 0)
(-231.292 -9.95342 0)
(-259.022 -6.30764 0)
(-229.041 -2.49181 0)
(-181.404 0.516265 0)
(-79.0608 2.33402 0)
(37.8036 3.77634 0)
(164.27 4.67088 0)
(277.991 5.10447 0)
(336.691 4.88051 0)
(349.2 3.42812 0)
(351.636 2.10335 0)
(350.364 -0.64795 0)
(346.609 -2.77808 0)
(323.949 -3.00214 0)
(208.004 -0.7216 0)
(-89.8133 4.29366 0)
(-193.354 6.99533 0)
(-181.798 7.86849 0)
(-148.808 8.04923 0)
(-105.594 7.56955 0)
(-66.511 7.19316 0)
(-33.0055 6.25441 0)
(-2.30623 5.82984 0)
(28.1797 6.24747 0)
(60.0238 6.61538 0)
(94.0318 6.89731 0)
(130.569 6.34515 0)
(169.635 6.51498 0)
(211.774 6.3383 0)
(258.627 5.20669 0)
(309.196 4.44988 0)
(341.986 4.92163 0)
(346.666 6.9922 0)
(333.776 9.65505 0)
(250.96 11.5013 0)
(21.2567 10.2011 0)
(-78.2947 8.55081 0)
(-71.5456 7.81267 0)
(-48.7473 6.7348 0)
(-15.9795 4.61993 0)
(10.9886 2.16389 0)
(29.8922 -0.156038 0)
(45.1328 -1.61969 0)
(60.3642 -2.84554 0)
(77.2123 -4.22181 0)
(95.8412 -5.86805 0)
(115.566 -7.02152 0)
(135.381 -7.75711 0)
(154.518 -8.07241 0)
(173.462 -8.18415 0)
(195.607 -8.1367 0)
(228.213 -7.32932 0)
(271.678 -5.34593 0)
(291.571 -2.49696 0)
(284.814 -0.0791127 0)
(241.523 1.70837 0)
(89.9837 0.653013 0)
(-15.7457 -0.695367 0)
(-18.7053 -1.14591 0)
(-7.66779 -1.44878 0)
(14.6468 -2.24399 0)
(36.8763 -3.57448 0)
(51.8991 -4.85265 0)
(62.7839 -5.60639 0)
(73.7132 -5.7973 0)
(86.6513 -5.85117 0)
(101.622 -6.20636 0)
(117.458 -6.69529 0)
(132.701 -7.37642 0)
(146.361 -8.32644 0)
(159.025 -9.48458 0)
(173.076 -10.7676 0)
(193.376 -12.1433 0)
(227.56 -13.3752 0)
(259.477 -13.8033 0)
(264.194 -12.4866 0)
(254.568 -10.7179 0)
(195.485 -7.71355 0)
(69.1495 -3.55748 0)
(20.35 -1.66193 0)
(21.5826 -0.786448 0)
(30.0061 0.129842 0)
(47.3077 0.618234 0)
(65.5696 1.18997 0)
(78.088 2.2417 0)
(87.0087 3.06763 0)
(95.9372 3.39027 0)
(106.528 3.44513 0)
(119.01 3.32239 0)
(132.454 2.98548 0)
(145.13 2.56006 0)
(155.889 2.13416 0)
(165.472 1.60458 0)
(176.18 0.693968 0)
(191.997 -0.703173 0)
(219.087 -2.45467 0)
(248.695 -4.35327 0)
(256.168 -5.45908 0)
(251.135 -6.32603 0)
(218.203 -6.34648 0)
(120.7 -4.1385 0)
(54.0334 -2.12622 0)
(49.0898 -1.43186 0)
(52.9672 -0.66645 0)
(64.4595 0.0208639 0)
(81.4985 0.692072 0)
(95.2697 1.75355 0)
(103.163 2.94948 0)
(108.771 3.68189 0)
(114.774 4.05584 0)
(122.494 4.4458 0)
(132.341 4.9094 0)
(142.989 5.44825 0)
(152.125 6.15942 0)
(159.176 7.09102 0)
(166.007 8.03236 0)
(175.618 8.92841 0)
(192.987 9.69001 0)
(221.026 10.1273 0)
(238.041 9.6202 0)
(239.126 8.89027 0)
(227.112 8.10266 0)
(173.028 7.12866 0)
(87.0936 6.42164 0)
(61.7375 6.4322 0)
(62.0299 6.17386 0)
(68.3402 5.73675 0)
(83.204 5.26912 0)
(99.7397 4.37706 0)
(109.018 3.26591 0)
(113.164 2.52633 0)
(116.358 1.96601 0)
(120.556 1.34427 0)
(127.44 0.606001 0)
(137.487 -0.502742 0)
(148.321 -2.23732 0)
(156.368 -4.50137 0)
(161.566 -6.66218 0)
(166.406 -8.65894 0)
(173.141 -10.4977 0)
(185.744 -11.943 0)
(204.345 -12.2971 0)
(212.806 -10.7372 0)
(212.297 -8.50521 0)
(197.264 -4.92027 0)
(141.277 -0.185884 0)
(71.4182 4.09245 0)
(55.1557 5.91099 0)
(56.137 6.8755 0)
(62.343 7.82751 0)
(76.3993 8.58714 0)
(93.678 9.16966 0)
(104.204 9.53429 0)
(108.171 9.71456 0)
(110.606 9.77791 0)
(113.53 9.69936 0)
(118.454 9.40335 0)
(126.973 8.80866 0)
(139.182 7.79723 0)
(151.666 6.3113 0)
(160.51 4.49021 0)
(166.497 2.66121 0)
(172.344 1.03615 0)
(180.692 -0.262521 0)
(194.174 -1.17085 0)
(206.306 -1.9287 0)
(210.976 -2.83821 0)
(206.324 -3.78017 0)
(180.116 -4.90718 0)
(115.964 -5.98456 0)
(72.737 -6.81098 0)
(66.6708 -7.53093 0)
(71.3256 -8.30235 0)
(82.4958 -9.09161 0)
(99.0239 -9.18597 0)
(109.319 -8.20731 0)
(113.052 -6.82036 0)
(112.735 -5.44302 0)
(111.155 -3.53888 0)
(110.937 -1.43115 0)
(113.259 0.908679 0)
(116.913 3.48857 0)
(123.064 5.63434 0)
(131.869 7.29454 0)
(140.874 8.85759 0)
(148.573 10.2544 0)
(155.791 11.3581 0)
(165.231 12.0733 0)
(179.112 12.3607 0)
(194.422 12.1188 0)
(201.928 11.2116 0)
(194.693 10.1629 0)
(169.921 8.66188 0)
(117.989 6.9652 0)
(83.1447 5.12682 0)
(74.0502 3.33187 0)
(79.7699 1.51341 0)
(97.7858 -0.782022 0)
(119.101 -3.058 0)
(129.142 -4.82582 0)
(128.773 -5.87573 0)
(125.773 -6.96836 0)
(123.48 -7.90168 0)
(122.763 -8.57034 0)
(123.83 -8.83545 0)
(127.545 -8.29211 0)
(133.773 -6.93832 0)
(140.897 -4.991 0)
(148 -3.17198 0)
(157.017 -1.93022 0)
(171.6 -1.45735 0)
(188.453 -1.4253 0)
(196.246 -1.62061 0)
(187.335 -1.79775 0)
(159.459 -1.84586 0)
(108.05 -1.74449 0)
(82.063 -1.83851 0)
(76.3682 -2.26454 0)
(85.3089 -2.71702 0)
(104.99 -3.2286 0)
(121.322 -3.50546 0)
(124.546 -3.14398 0)
(120.919 -2.60691 0)
(117.177 -1.57318 0)
(115.561 -0.569141 0)
(117.806 0.342745 0)
(124.239 1.11772 0)
(133.116 1.46342 0)
(143.771 0.772266 0)
(158.36 -1.53178 0)
(176.735 -5.54891 0)
(185.61 -10.7669 0)
(177.571 -15.2545 0)
(143.415 -17.4393 0)
(103.053 -18.0224 0)
(85.5873 -19.4149 0)
(95.7101 -19.7495 0)
(121.23 -18.583 0)
(142.941 -14.4977 0)
(147.729 -10.2727 0)
(147.901 -7.799 0)
(150.723 -5.02454 0)
(156.417 -1.7669 0)
(169.988 1.25678 0)
(186.235 8.52146 0)
(199.161 16.8128 0)
(200.381 23.3644 0)
(184.886 23.7632 0)
(154.611 20.6956 0)
(123.252 15.538 0)
(110.514 11.5526 0)
(113.715 9.05268 0)
(123.123 6.75546 0)
(137.938 3.90506 0)
(145.155 0.860805 0)
(141.536 -1.02517 0)
(132.954 -3.00417 0)
(123.077 -4.03583 0)
(120.768 -4.24594 0)
(123.676 -4.20736 0)
(132.966 -3.58962 0)
(141.956 -2.39989 0)
(143.627 -1.61491 0)
(140.847 -1.27398 0)
(135.999 -1.38957 0)
(133.213 -1.80199 0)
(133.225 -1.94056 0)
(136.093 -1.73784 0)
(139.955 -0.913197 0)
(140.957 -0.167505 0)
(139.89 0.302778 0)
(137.323 0.435247 0)
(135.63 0.0515214 0)
(135.542 -0.322482 0)
(136.675 -0.662817 0)
(138.481 -0.690404 0)
(139.074 -0.449514 0)
(138.731 -0.181991 0)
(137.675 0.103357 0)
(136.901 0.194359 0)
(136.901 0.15352 0)
(137.44 0.0558806 0)
(138.399 -0.0452212 0)
(138.743 -0.055721 0)
(138.595 -0.0293554 0)
(137.987 0.0274898 0)
(137.124 0.0892374 0)
(136.856 0.117376 0)
(136.921 0.134699 0)
(137.284 0.167911 0)
(137.815 0.218953 0)
(138.031 0.252547 0)
(138.007 0.255358 0)
(137.894 0.230382 0)
(137.806 0.149585 0)
(137.792 0.0314264 0)
(137.867 -0.078567 0)
(137.816 -0.137675 0)
(-2375.15 -0.253975 0)
(-792.41 10.4224 0)
(-235.986 -2.25264 0)
(-261.952 -1.9557 0)
(-230.736 -2.33097 0)
(-182.202 -1.90824 0)
(-79.3821 0.213998 0)
(37.6657 3.02846 0)
(163.093 4.5772 0)
(276.675 4.88942 0)
(336.834 4.47618 0)
(350.583 2.77402 0)
(353.457 1.74778 0)
(351.965 -0.101139 0)
(348.108 -1.4654 0)
(326.913 -1.04966 0)
(214.907 1.50464 0)
(-84.2762 5.86416 0)
(-193.561 8.66453 0)
(-183.396 9.8119 0)
(-151.137 10.2036 0)
(-108.474 9.85133 0)
(-69.3705 9.29484 0)
(-35.0264 7.76881 0)
(-2.8026 7.06572 0)
(29.2486 7.59322 0)
(61.9454 8.2371 0)
(96.0239 8.16621 0)
(132.122 7.71094 0)
(170.609 7.67136 0)
(212.404 8.07912 0)
(259.728 6.58686 0)
(311.073 5.37975 0)
(344.668 5.75677 0)
(350.534 8.16074 0)
(338.567 10.8163 0)
(252.989 12.5374 0)
(17.4763 10.8908 0)
(-80.69 9.15614 0)
(-75.0417 8.3002 0)
(-52.7779 6.94609 0)
(-20.2728 4.43948 0)
(6.53834 1.30363 0)
(25.8705 -0.61448 0)
(41.8721 -2.29765 0)
(57.664 -3.45416 0)
(74.7243 -4.65361 0)
(93.355 -6.00665 0)
(113.111 -7.01911 0)
(133.107 -7.65852 0)
(152.546 -8.02643 0)
(171.892 -8.48506 0)
(194.692 -8.906 0)
(229.061 -8.5123 0)
(274.794 -6.62875 0)
(294.633 -3.37065 0)
(289.09 -0.710045 0)
(244.197 1.28223 0)
(88.3664 0.395612 0)
(-15.6253 -0.808007 0)
(-18.2517 -1.16118 0)
(-7.80137 -1.42452 0)
(14.204 -2.22249 0)
(36.406 -3.4863 0)
(51.7059 -4.79021 0)
(63.2185 -5.56497 0)
(74.8407 -5.89349 0)
(88.1537 -6.20119 0)
(102.967 -6.83058 0)
(118.348 -7.50754 0)
(133.109 -8.23532 0)
(146.485 -8.92112 0)
(158.857 -10.0853 0)
(172.535 -11.6973 0)
(192.365 -13.6486 0)
(226.021 -15.7129 0)
(260.444 -17.1388 0)
(267.336 -16.0099 0)
(259.012 -14.5142 0)
(204.07 -11.1582 0)
(77.0446 -5.42015 0)
(23.3503 -2.4821 0)
(23.9089 -1.40903 0)
(32.2323 -0.25547 0)
(49.5214 0.405366 0)
(67.8106 1.05211 0)
(80.0831 2.30738 0)
(88.4133 3.6147 0)
(96.6116 4.32086 0)
(106.616 4.50927 0)
(118.721 4.50937 0)
(131.974 4.2806 0)
(144.551 3.94239 0)
(155.158 3.51894 0)
(164.294 2.78832 0)
(174.258 1.76694 0)
(189.073 0.345969 0)
(214.954 -1.80236 0)
(244.8 -4.46194 0)
(253.252 -6.32599 0)
(248.655 -7.37164 0)
(218.503 -7.51934 0)
(124.886 -4.95944 0)
(55.2679 -2.13902 0)
(49.355 -1.17288 0)
(53.331 -0.405948 0)
(64.9714 0.224132 0)
(82.3061 0.82545 0)
(96.2452 1.87195 0)
(104.005 3.18921 0)
(109.278 4.16945 0)
(114.89 4.81928 0)
(122.328 5.4888 0)
(132.072 6.19304 0)
(142.824 6.94157 0)
(152.176 7.87185 0)
(159.426 9.00488 0)
(166.391 10.1139 0)
(175.993 11.1085 0)
(193.307 11.8512 0)
(220.824 12.29 0)
(236.414 11.7124 0)
(237.147 10.806 0)
(225.141 9.65071 0)
(170.676 8.40129 0)
(85.7553 7.30521 0)
(61.0983 7.10622 0)
(61.055 6.83009 0)
(66.8609 6.32422 0)
(81.3292 5.626 0)
(97.8678 4.4109 0)
(107.408 3.07963 0)
(111.759 2.55095 0)
(115.196 2.11099 0)
(119.399 1.45692 0)
(125.843 0.405673 0)
(134.976 -1.31814 0)
(145.034 -3.74162 0)
(153.125 -6.40813 0)
(158.826 -8.72203 0)
(164.15 -10.6264 0)
(171.522 -12.1121 0)
(185.176 -13.169 0)
(205.832 -13.5285 0)
(216.221 -12.5873 0)
(216.291 -11.1757 0)
(203.441 -8.88846 0)
(150.901 -4.45505 0)
(77.8984 1.41584 0)
(58.6728 4.73983 0)
(59.148 6.56197 0)
(64.8685 8.52014 0)
(78.0452 9.94602 0)
(94.7106 10.8959 0)
(105.001 11.4021 0)
(108.848 11.643 0)
(111.282 11.7929 0)
(114.139 11.8164 0)
(118.857 11.6805 0)
(127.021 11.2808 0)
(138.413 10.4295 0)
(149.782 8.80091 0)
(157.831 6.50454 0)
(163.465 3.98764 0)
(169.282 1.52502 0)
(177.977 -0.637479 0)
(192.157 -2.28219 0)
(204.324 -3.64545 0)
(208.871 -4.91655 0)
(204.162 -6.2059 0)
(178.129 -7.48199 0)
(114.809 -8.07556 0)
(72.1512 -8.22087 0)
(66.1353 -8.53181 0)
(70.5931 -8.97898 0)
(81.833 -9.57926 0)
(99.2314 -9.96842 0)
(110.859 -9.62849 0)
(114.834 -8.69283 0)
(114.886 -7.63177 0)
(113.77 -5.80827 0)
(114.052 -3.66423 0)
(116.837 -1.15548 0)
(120.927 1.98039 0)
(127.062 5.1895 0)
(135.224 8.11155 0)
(143.475 10.5222 0)
(150.752 12.1832 0)
(157.594 13.6215 0)
(166.679 14.7694 0)
(180.122 15.5048 0)
(194.778 15.7587 0)
(201.789 15.3854 0)
(194.107 14.6517 0)
(168.77 13.3293 0)
(116.213 11.4484 0)
(81.162 9.36894 0)
(71.9174 7.30758 0)
(77.1447 5.3006 0)
(94.3069 2.57166 0)
(115.515 -0.517794 0)
(126.538 -3.3325 0)
(126.762 -5.25851 0)
(124.075 -7.12233 0)
(122.332 -8.74898 0)
(122.233 -9.82462 0)
(124.309 -10.3365 0)
(129.574 -9.85147 0)
(136.936 -8.43915 0)
(144.163 -6.80707 0)
(150.555 -5.3779 0)
(158.447 -4.43559 0)
(171.925 -4.03566 0)
(188.303 -4.09448 0)
(196.008 -4.02325 0)
(187.306 -3.77135 0)
(160.013 -3.08013 0)
(108.862 -1.98709 0)
(82.1285 -1.46995 0)
(76.0464 -1.58973 0)
(84.7878 -1.90185 0)
(104.73 -2.40157 0)
(122.032 -2.51867 0)
(126.131 -1.97077 0)
(122.859 -1.32772 0)
(119.417 -0.209847 0)
(118.082 0.734099 0)
(120.506 1.51537 0)
(126.984 1.91413 0)
(135.721 1.70592 0)
(145.619 0.50721 0)
(158.652 -2.07905 0)
(175.667 -6.51678 0)
(184.662 -12.279 0)
(177.668 -16.8483 0)
(146.84 -21.2734 0)
(105.134 -22.1387 0)
(84.5519 -23.7887 0)
(92.5184 -24.4462 0)
(117.123 -23.4955 0)
(137.135 -18.8422 0)
(139.161 -15.0247 0)
(141.073 -11.9073 0)
(143.597 -7.44432 0)
(151.688 -1.8518 0)
(166.893 3.22993 0)
(185.293 9.60962 0)
(193.488 18.91 0)
(194.209 28.3917 0)
(177.284 32.3827 0)
(147.846 28.5055 0)
(122.347 22.876 0)
(113.312 17.5523 0)
(116.744 13.2535 0)
(124.108 9.25324 0)
(137.694 4.93381 0)
(145.676 0.372625 0)
(142.776 -2.16306 0)
(134.289 -4.57227 0)
(124.858 -5.5763 0)
(121.666 -5.77655 0)
(124.449 -5.79496 0)
(134.355 -5.4794 0)
(143.552 -4.06146 0)
(144.373 -2.83564 0)
(140.975 -1.81051 0)
(135.096 -1.36824 0)
(132.228 -1.58354 0)
(132.615 -1.79752 0)
(136.271 -1.75319 0)
(140.732 -1.30001 0)
(141.637 -0.712032 0)
(140.339 -0.208357 0)
(137.058 0.0739064 0)
(134.912 -0.0809929 0)
(134.895 -0.324375 0)
(136.265 -0.588345 0)
(138.579 -0.648523 0)
(139.4 -0.459448 0)
(139.092 -0.243593 0)
(137.925 0.0107265 0)
(136.848 0.132834 0)
(136.766 0.114807 0)
(137.237 0.0659955 0)
(138.256 -0.00149149 0)
(138.72 -0.00751571 0)
(138.608 0.0201851 0)
(138.039 0.0650374 0)
(137.149 0.113053 0)
(136.853 0.141632 0)
(136.924 0.160882 0)
(137.311 0.19528 0)
(137.844 0.242222 0)
(138.026 0.268974 0)
(137.977 0.271777 0)
(137.803 0.248352 0)
(137.646 0.167568 0)
(137.606 0.0497581 0)
(137.692 -0.0494981 0)
(137.75 -0.146469 0)
(-2373.83 -0.738646 0)
(-783.139 23.2973 0)
(-243.966 -3.3912 0)
(-266.774 -4.70269 0)
(-232.316 -6.31897 0)
(-181.473 -4.27449 0)
(-77.2907 -1.66082 0)
(39.3594 1.68479 0)
(162.695 3.12952 0)
(275.413 3.14917 0)
(336.883 2.67473 0)
(351.563 1.72737 0)
(354.557 1.29208 0)
(352.938 0.661342 0)
(349.253 0.612352 0)
(329.695 1.86882 0)
(220.353 3.67923 0)
(-79.9995 6.49195 0)
(-193.171 9.07898 0)
(-184.253 10.4319 0)
(-153.026 10.931 0)
(-111.226 10.601 0)
(-72.1649 9.84142 0)
(-36.8322 8.11521 0)
(-2.94291 7.41342 0)
(30.6819 7.8654 0)
(64.2274 8.67013 0)
(98.1893 8.70831 0)
(133.42 8.66926 0)
(171.019 8.9533 0)
(212.46 8.76116 0)
(260.074 7.77098 0)
(312.429 6.13561 0)
(346.985 6.03176 0)
(354.293 8.05548 0)
(342.998 10.1328 0)
(254.382 11.2313 0)
(13.2385 9.25276 0)
(-82.741 7.68592 0)
(-78.682 6.73315 0)
(-56.7321 5.40918 0)
(-24.7149 3.11375 0)
(1.95119 0.692463 0)
(21.8172 -1.52919 0)
(38.7444 -2.42537 0)
(55.3171 -3.02917 0)
(72.7513 -3.85277 0)
(91.3627 -4.97417 0)
(110.991 -5.69447 0)
(130.937 -6.06334 0)
(150.407 -6.27362 0)
(169.936 -6.85137 0)
(193.371 -7.43759 0)
(229.497 -7.52529 0)
(277.739 -6.49534 0)
(298.295 -3.86767 0)
(294.013 -1.64398 0)
(247.773 0.000172841 0)
(88.0848 0.0339645 0)
(-14.9984 -0.486229 0)
(-17.4969 -0.60968 0)
(-7.42003 -0.78805 0)
(14.4198 -1.4914 0)
(36.4763 -2.65488 0)
(51.8158 -3.53934 0)
(63.5781 -4.17164 0)
(75.5902 -4.62002 0)
(89.2796 -5.23337 0)
(104.336 -6.18916 0)
(119.714 -7.07862 0)
(134.253 -8.0014 0)
(147.184 -8.95958 0)
(158.945 -9.89545 0)
(171.893 -11.4178 0)
(190.982 -13.6007 0)
(223.862 -16.0751 0)
(260.859 -18.1523 0)
(270.531 -17.3715 0)
(263.792 -16.1238 0)
(213.847 -12.7658 0)
(87.2716 -6.2213 0)
(27.0827 -2.47645 0)
(26.5505 -1.52541 0)
(34.521 -0.636875 0)
(51.7682 -0.130687 0)
(70.2688 0.45575 0)
(82.5317 1.68591 0)
(90.4659 3.32708 0)
(97.9499 4.53949 0)
(107.106 5.20273 0)
(118.645 5.41539 0)
(131.674 5.47098 0)
(144.064 5.35948 0)
(154.368 4.97527 0)
(163.02 4.4287 0)
(172.124 3.49649 0)
(185.671 1.9603 0)
(210.131 -0.228222 0)
(240.199 -3.0003 0)
(249.694 -5.18523 0)
(245.714 -6.44359 0)
(218.674 -6.79466 0)
(129.566 -4.37884 0)
(56.861 -1.18434 0)
(49.6483 -0.208323 0)
(53.4837 0.422984 0)
(64.995 0.73974 0)
(82.4433 0.855075 0)
(96.6645 1.39815 0)
(104.585 2.42259 0)
(109.757 3.49075 0)
(115.161 4.36908 0)
(122.427 5.22773 0)
(132.118 6.1264 0)
(142.993 7.03018 0)
(152.551 8.06002 0)
(159.954 9.22966 0)
(166.938 10.34 0)
(176.35 11.3154 0)
(193.306 12.0978 0)
(219.842 12.4985 0)
(234.18 11.5846 0)
(234.752 10.6484 0)
(222.818 9.54126 0)
(168.036 8.12694 0)
(84.2001 7.04265 0)
(60.4351 6.74784 0)
(60.0747 6.25066 0)
(65.533 5.54594 0)
(79.5497 4.6784 0)
(96.1034 3.30847 0)
(106.118 2.07845 0)
(110.741 1.42875 0)
(114.367 0.746659 0)
(118.424 -0.270713 0)
(124.188 -1.7008 0)
(132.319 -3.64965 0)
(141.787 -5.98207 0)
(150.098 -8.24447 0)
(156.393 -10.0632 0)
(162.265 -11.4715 0)
(170.273 -12.4968 0)
(184.798 -13.2159 0)
(206.895 -13.5095 0)
(218.842 -12.9012 0)
(219.417 -12.095 0)
(208.111 -10.9731 0)
(159.676 -8.20786 0)
(85.5019 -2.71594 0)
(63.0857 1.03989 0)
(63.1366 3.42259 0)
(68.7314 6.492 0)
(81.1467 8.96151 0)
(96.799 10.6112 0)
(106.29 11.6486 0)
(109.692 12.1213 0)
(111.939 12.4278 0)
(114.668 12.612 0)
(118.976 12.5661 0)
(126.329 12.0691 0)
(136.657 10.7275 0)
(146.971 8.48909 0)
(154.344 5.67322 0)
(159.756 2.78095 0)
(165.581 0.0160488 0)
(174.625 -2.38795 0)
(189.51 -4.25156 0)
(202.037 -5.75088 0)
(206.477 -6.94128 0)
(201.936 -8.08127 0)
(176.743 -9.0007 0)
(114.934 -9.0858 0)
(72.3098 -8.75592 0)
(66.0598 -8.73554 0)
(70.3373 -8.83381 0)
(81.3053 -9.07661 0)
(98.928 -9.64152 0)
(111.839 -9.86116 0)
(116.191 -9.37847 0)
(116.697 -8.68833 0)
(116.187 -7.27741 0)
(117.135 -5.52075 0)
(120.482 -3.18312 0)
(125.323 -0.420713 0)
(132.106 2.90347 0)
(140.246 6.46638 0)
(147.427 10.1184 0)
(153.749 12.7887 0)
(159.802 14.6826 0)
(168.35 15.9479 0)
(181.526 16.9127 0)
(195.62 17.748 0)
(201.854 17.8105 0)
(193.607 17.452 0)
(167.295 16.3502 0)
(113.495 14.4601 0)
(78.6396 12.3655 0)
(69.6603 10.6657 0)
(74.5687 9.13616 0)
(90.5457 6.87335 0)
(111.051 3.7071 0)
(122.766 0.238821 0)
(123.298 -2.77324 0)
(120.992 -5.50817 0)
(119.996 -7.97319 0)
(120.807 -9.76431 0)
(124.043 -10.7339 0)
(130.425 -10.9654 0)
(138.78 -10.4676 0)
(146.398 -9.29614 0)
(152.406 -8.01778 0)