/*--------------------------------*- C++ -*----------------------------------*\
| =========                 |                                                 |
| \\      /  F ield         | OpenFOAM: The Open Source CFD Toolbox           |
|  \\    /   O peration     | Version:  2306                                  |
|   \\  /    A nd           | Website:  www.openfoam.com                      |
|    \\/     M anipulation  |                                                 |
\*---------------------------------------------------------------------------*/
FoamFile
{
    version     2.0;
    format      ascii;
    arch        "LSB;label=32;scalar=64";
    class       volScalarField;
    location    "0.1";
    object      p;
}
// * * * * * * * * * * * * * * * * * * * * * * * * * * * * * * * * * * * * * //

dimensions      [1 -1 -2 0 0 0 0];

internalField   nonuniform List<scalar> 
6000
(
2.90281e+07
590259
215349
216641
216474
212491
206869
205650
190364
141972
104277
102297
104490
110477
118616
127684
137369
147740
159065
171790
186455
202232
214873
220995
222090
221107
205457
150955
119958
119653
123128
129305
135124
139843
144134
148557
153324
158421
163705
168958
174095
179684
187651
200224
209974
210846
204292
170435
137917
135145
136571
140852
145806
149464
152235
154940
157977
161369
164886
168183
171035
173626
176766
182294
192058
199491
200057
195265
171516
146628
143558
144241
147034
151015
154043
155952
157554
159374
161627
164203
166724
168876
170769
172985
176782
183771
190343
191438
189803
177469
155802
149483
149715
151320
154692
158262
160537
161955
163235
164774
166746
168973
170990
172598
174110
176234
180270
185966
188887
189026
185411
171170
156533
154299
154813
156828
160238
163206
164695
165550
166327
167243
168393
169786
171166
172198
173030
174206
176587
180316
183303
183133
180037
169498
157029
153325
153409
155263
158839
162507
164725
165576
166033
166702
167954
169747
171542
172950
174354
176814
180993
182820
181752
175367
162312
154305
153515
154755
158644
163535
166656
167498
167660
168019
169011
170602
172681
175805
180444
184061
182469
175097
162582
155111
154742
158327
164426
168221
168014
166643
165632
166242
169875
176568
182350
180570
173771
163736
159501
160243
164283
168944
176851
178131
173015
164031
161133
163140
170504
174287
172825
168509
164605
164308
166355
170198
171090
170089
167772
166816
167249
168927
170354
170347
169517
167918
167291
167349
167911
168528
168596
168476
168272
168270
168406
168696
168813
168771
168582
168334
168241
168241
168261
168265
168243
168190
168160
168186
168232
168273
168298
168295
168274
168267
168260
168242
168203
168130
168027
167951
167919
167906
167922
167962
167991
167994
167996
167995
167988
167963
167917
167858
167813
167796
167786
167779
167775
167778
167794
167827
167865
167882
167886
167883
167864
167822
167748
167654
167571
167522
167500
167492
167484
167483
167496
167526
167567
167593
167595
167578
167543
167476
167370
167236
167124
167075
167067
167068
167082
167169
2.90269e+07
588962
215697
216866
216615
212637
206977
205800
190267
141402
103800
101886
104101
110115
118271
127362
137039
147404
158746
171503
186187
202005
214657
220746
221774
220711
204861
150375
119769
119492
122976
129163
135021
139795
144129
148591
153403
158557
163911
169270
174547
180239
188257
200759
210342
211148
204470
170195
137826
135146
136571
140845
145775
149410
152160
154842
157851
161211
164705
168018
170937
173628
176855
182444
192226
199601
200133
195210
171344
146697
143744
144461
147312
151351
154428
156373
158001
159838
162097
164670
167178
169312
171185
173379
177152
184106
190571
191574
189853
177378
155745
149480
149682
151282
154641
158196
160447
161839
163099
164625
166584
168792
170782
172362
173852
175958
179954
185557
188387
188490
184826
170564
155976
153735
154239
156223
159579
162525
164003
164855
165638
166572
167791
169311
170841
172013
172955
174234
176720
180547
183618
183451
180344
169769
157181
153427
153487
155304
158817
162368
164444
165233
165700
166409
167692
169487
171274
172690
174150
176759
181182
183225
182180
175829
162734
154616
153800
155017
158872
163698
166672
167339
167369
167646
168622
170271
172411
175624
180479
184408
182812
175427
162727
154946
154526
157917
163887
167825
168046
166962
166186
166926
170437
176866
182310
180195
173089
163181
159123
160264
164695
169527
177317
177867
172593
163754
160943
163020
170818
175084
173627
168974
164451
163986
165785
169759
171058
170323
168163
166955
167242
168668
170156
170233
169547
168082
167405
167432
167916
168502
168588
168490
168306
168299
168421
168690
168803
168762
168584
168341
168241
168240
168253
168255
168231
168179
168156
168186
168232
168274
168300
168298
168275
168264
168255
168236
168199
168130
168033
167962
167935
167925
167945
167985
168009
168007
168003
167992
167970
167930
167871
167814
167780
167771
167767
167767
167770
167778
167798
167832
167868
167881
167882
167874
167848
167798
167721
167627
167547
167502
167487
167482
167478
167480
167495
167526
167566
167592
167593
167577
167544
167482
167384
167260
167152
167103
167094
167094
167108
167192
2.90273e+07
587055
215740
216899
216702
212609
206986
205878
190142
140704
103193
101338
103589
109659
117859
126982
136668
147024
158340
171085
185881
201950
214605
220441
221417
220413
204243
149571
119565
119321
122821
129012
134910
139756
144172
148710
153578
158765
164144
169524
174831
180623
188839
201513
210978
211671
204594
169608
137614
135077
136547
140841
145755
149371
152113
154772
157738
161052
164523
167853
170837
173618
176955
182679
192542
199714
200163
195092
170996
146759
144000
144776
147703
151827
154975
156974
158641
160506
162784
165363
167853
169949
171773
173925
177686
184614
190858
191713
189866
177062
155496
149461
149633
151225
154563
158080
160285
161634
162861
164364
166307
168500
170475
172041
173511
175598
179596
185126
187806
187824
184013
169607
155151
152953
153435
155365
158621
161516
162967
163812
164602
165560
166876
168585
170328
171699
172831
174279
176899
180814
183965
183854
180815
170175
157441
153655
153682
155442
158884
162330
164250
164893
165266
165930
167218
169043
170857
172309
173824
176549
181237
183631
182703
176438
163293
155079
154259
155468
159294
164026
166769
167152
167041
167229
168137
169749
171953
175334
180395
184710
183281
176123
163254
154945
154329
157407
163167
167225
167904
167187
166720
167697
171391
177797
182449
179781
171897
161956
158286
160144
165114
170482
178052
177672
172122
163258
160469
162503
170540
175929
174771
170171
164781
163783
165067
169005
170993
170606
168775
167263
167341
168351
169771
169969
169501
168314
167612
167589
167943
168459
168567
168492
168347
168340
168442
168681
168786
168749
168589
168361
168249
168242
168250
168246
168216
168164
168144
168175
168226
168271
168297
168299
168279
168262
168248
168226
168187
168122
168037
167979
167959
167956
167981
168023
168038
168030
168017
167992
167951
167889
167816
167758
167734
167731
167735
167744
167757
167775
167803
167842
167875
167884
167884
167870
167836
167774
167683
167580
167502
167467
167462
167462
167464
167472
167491
167525
167565
167589
167591
167579
167550
167497
167409
167293
167188
167137
167128
167130
167146
167227
2.90246e+07
587313
215500
216716
216635
212402
206749
205646
189763
139886
102444
100641
102977
109136
117409
126585
136301
146654
157928
170656
185618
201980
214519
220049
220987
220013
203467
148636
119380
119174
122698
128906
134870
139820
144353
148985
153915
159132
164518
169901
175215
181065
189483
202361
211587
212119
204561
168731
137328
135004
136529
140860
145756
149343
152051
154668
157596
160897
164382
167755
170812
173694
177148
183011
192920
199832
200205
194915
170520
146817
144308
145166
148197
152426
155666
157737
159468
161397
163737
166357
168847
170893
172639
174711
178428
185305
191291
191978
189913
176644
155139
149376
149543
151140
154468
157955
160134
161467
162674
164151
166059
168221
170172
171723
173186
175272
179281
184679
187158
187067
182996
168280
154077
152005
152477
154365
157557
160467
161977
162855
163673
164688
166116
167997
169951
171516
172769
174303
177027
181059
184318
184269
181291
170570
157717
153946
153964
155689
159042
162361
164133
164648
164896
165441
166657
168480
170369
171951
173604
176470
181351
184123
183337
177157
163932
155591
154778
155985
159767
164261
166650
166835
166646
166777
167636
169227
171476
174953
180166
184920
183599
176847
163892
154832
154016
156743
162340
166583
167802
167509
167357
168613
172652
179176
182559
179238
169940
160170
157191
160144
165884
171696
178727
177820
172153
163253
160021
161506
169383
176202
175396
171247
165252
163581
164564
168349
170932
170847
169312
167496
167365
168013
169338
169727
169459
168576
167839
167760
167976
168418
168570
168519
168404
168386
168455
168657
168764
168735
168603
168394
168261
168240
168244
168237
168205
168155
168133
168159
168209
168264
168291
168297
168284
168265
168244
168215
168173
168111
168040
168000
167990
167996
168029
168067
168070
168054
168030
167990
167926
167842
167755
167698
167681
167681
167692
167711
167738
167771
167811
167854
167883
167887
167883
167862
167817
167739
167631
167520
167453
167434
167437
167442
167451
167466
167492
167529
167566
167588
167589
167577
167553
167508
167434
167332
167235
167189
167181
167186
167204
167279
2.90188e+07
588633
215188
216476
216456
212054
206348
205188
189186
139003
101811
100062
102494
108747
117100
126343
136101
146462
157713
170433
185521
202062
214423
219636
220553
219569
202648
147760
119251
119084
122636
128870
134915
139975
144609
149326
154314
159561
164944
170297
175601
181505
190104
203085
211913
212294
204266
167617
136939
134839
136437
140830
145735
149332
152052
154672
157582
160842
164306
167714
170852
173832
177402
183402
193348
199913
200166
194591
169830
146785
144555
145494
148622
152936
156245
158393
160200
162206
164624
167319
169859
171915
173634
175658
179315
186069
191785
192292
189981
176171
154737
149269
149424
151028
154338
157776
159906
161200
162378
163838
165744
167911
169876
171453
172955
175093
179150
184447
186761
186584
182194
167024
153084
151172
151655
153537
156706
159605
161134
162026
162861
163911
165396
167323
169323
170987
172395
174098
177017
181215
184580
184594
181655
170853
157959
154239
154270
156010
159341
162575
164208
164582
164753
165214
166300
168013
169869
171508
173267
176259
181366
184554
183906
177772
164429
155923
155128
156385
160238
164608
166651
166624
166318
166379
167256
168884
171141
174592
179816
184913
183679
177417
164498
154802
153687
156216
161693
166184
167749
167795
167972
169671
174334
181026
182633
178311
167172
158121
156280
160328
166833
172951
179451
178359
172724
163996
160045
160515
167731
176004
175702
172067
165929
163708
164472
168007
170934
170986
169622
167629
167254
167689
168951
169575
169450
168790
168032
167895
168020
168404
168609
168575
168470
168426
168456
168618
168740
168724
168622
168435
168285
168240
168235
168227
168198
168150
168124
168140
168182
168244
168283
168292
168286
168268
168241
168205
168157
168096
168040
168020
168020
168040
168080
168111
168101
168076
168040
167983
167900
167797
167701
167647
167634
167636
167650
167680
167721
167769
167823
167870
167892
167893
167884
167855
167796
167699
167573
167464
167413
167403
167408
167416
167432
167457
167490
167529
167563
167582
167582
167573
167553
167517
167457
167372
167287
167247
167242
167249
167270
167337
2.90148e+07
590027
215051
216349
216407
211996
206144
204825
188363
137632
101159
99594.4
102148
108520
116950
126245
136050
146435
157669
170359
185480
202081
214215
219125
220042
219043
201861
147074
119162
119032
122606
128874
134979
140116
144825
149603
154634
159898
165271
170602
175901
181869
190618
203611
212003
212243
203651
166200
136396
134537
136219
140693
145633
149269
152037
154694
157626
160912
164412
167850
171007
174010
177621
183715
193684
199923
200063
194137
168913
146619
144679
145685
148897
153270
156612
158796
160649
162713
165190
167940
170539
172663
174458
176556
180281
186979
192409
192740
190148
175700
154335
149198
149348
150966
154268
157659
159744
161011
162173
163628
165542
167728
169724
171336
172882
175099
179270
184534
186698
186444
181752
166111
152447
150713
151211
153114
156295
159184
160710
161601
162435
163492
164981
166895
168872
170547
172024
173858
176960
181303
184712
184789
181881
170972
158068
154457
154529
156337
159720
162953
164488
164755
164843
165228
166241
167837
169586
171173
172958
176085
181386
184895
184327
178186
164690
155976
155161
156447
160395
164796
166709
166510
166125
166165
167068
168741
170978
174300
179359
184507
183530
177660
164980
154823
153511
155950
161442
166118
167915
168117
168527
170702
176139
182773
182384
176765
163844
156178
155633
160787
167662
173978
180004
179208
173626
164983
160249
159698
166087
175263
175768
172665
166657
164023
164603
167813
170831
170950
169723
167663
167132
167476
168698
169497
169449
168912
168161
167986
168076
168432
168671
168639
168523
168446
168447
168576
168717
168714
168638
168469
168312
168248
168235
168226
168202
168155
168120
168125
168153
168211
168268
168288
168286
168270
168241
168200
168145
168083
168039
168034
168044
168076
168123
168149
168132
168101
168052
167978
167877
167760
167660
167610
167598
167600
167616
167653
167708
167775
167843
167890
167906
167905
167889
167850
167774
167657
167521
167422
167382
167377
167382
167394
167416
167446
167483
167522
167554
167571
167572
167566
167552
167526
167481
167415
167347
167311
167307
167316
167337
167393
2.90162e+07
591378
215240
216453
216511
212188
206222
204774
187577
135987
100705
99431.7
102102
108589
117098
126448
136285
146661
157850
170481
185556
202074
213974
218673
219553
218522
201188
146603
119108
119001
122592
128879
135016
140191
144936
149737
154771
160016
165364
170687
176010
182049
190972
203960
211947
212006
202765
164565
135739
134127
135906
140479
145485
149191
152036
154761
157749
161081
164618
168085
171264
174277
177897
184061
194055
199920
199963
193609
167828
146309
144639
145684
148954
153353
156711
158931
160827
162924
165419
168177
170801
172988
174886
177131
181068
187899
193044
193251
190360
175219
153952
149170
149324
150962
154267
157625
159679
160933
162093
163553
165471
167660
169668
171326
172949
175268
179581
184851
186858
186542
181579
165626
152272
150686
151210
153134
156323
159189
160683
161550
162363
163402
164874
166756
168683
170325
171803
173669
176888
181340
184631
184693
181702
170720
158032
154611
154722
156597
160074
163392
164946
165158
165160
165446
166372
167917
169583
171078
172806
175934
181352
185101
184520
178347
164730
155828
154969
156267
160301
164804
166762
166554
166194
166259
167162
168805
170985
174090
178848
183864
183052
177703
165459
155013
153537
155882
161393
166208
168097
168414
168983
171516
177629
183959
181922
174732
160797
154766
155286
161133
168137
174325
180061
180039
174601
165951
160427
159087
164861
174652
175839
173121
167304
164350
164736
167608
170650
170846
169728
167690
167080
167367
168537
169423
169406
168946
168229
168041
168127
168478
168729
168696
168567
168458
168438
168544
168700
168712
168654
168501
168340
168268
168252
168243
168218
168168
168118
168109
168124
168174
168242
168283
168285
168271
168243
168199
168138
168075
168036
168040
168058
168095
168146
168176
168160
168125
168070
167983
167865
167738
167639
167592
167580
167581
167597
167638
167703
167789
167869
167913
167923
167920
167897
167846
167753
167620
167483
167397
167368
167364
167368
167381
167405
167436
167470
167502
167531
167551
167558
167557
167550
167533
167502
167455
167402
167371
167366
167375
167395
167439
2.90206e+07
593388
215571
216706
216784
212512
206406
204880
186996
134534
100476
99489.2
102289
108903
117474
126828
136634
146965
158099
170674
185647
202025
213768
218314
219110
217996
200620
146336
119061
118965
122556
128848
134991
140167
144902
149670
154648
159831
165131
170441
175816
181998
191164
204205
211669
211528
201690
162913
135087
133720
135598
140275
145354
149138
152055
154836
157871
161244
164814
168300
171481
174492
178132
184382
194350
199914
199873
193036
166647
145887
144448
145510
148817
153203
156543
158769
160684
162801
165311
168087
170746
172996
174977
177356
181550
188604
193566
193685
190554
174727
153608
149192
149359
151023
154345
157687
159730
160991
162167
163642
165565
167743
169740
171409
173091
175524
179958
185276
187224
186891
181713
165548
152469
151009
151556
153514
156727
159558
161007
161846
162634
163653
165116
166969
168831
170379
171771
173603
176901
181445
184545
184563
181428
170256
157761
154582
154798
156815
160401
163765
165360
165633
165649
165910
166752
168174
169769
171216
172854
175840
181138
184989
184408
178238
164583
155512
154606
155929
160068
164710
166782
166681
166384
166488
167387
168974
170995
173828
178227
183084
182421
177522
165828
155306
153656
155937
161490
166468
168476
168709
169187
171734
178040
184320
181421
172710
158914
154499
155590
161719
168270
174146
179818
180724
175411
166636
160430
158608
164119
174349
176072
173544
167787
164496
164749
167384
170477
170767
169748
167755
167065
167299
168408
169341
169352
168953
168279
168093
168176
168511
168761
168728
168593
168469
168438
168534
168693
168715
168668
168529
168377
168304
168288
168280
168249
168184
168118
168095
168097
168140
168211
168272
168283
168270
168247
168207
168146
168079
168036
168041
168061
168101
168153
168186
168177
168142
168088
168002
167884
167751
167643
167590
167575
167576
167592
167636
167713
167814
167900
167939
167945
167938
167907
167842
167733
167591
167460
167391
167373
167369
167373
167388
167412
167439
167463
167482
167500
167521
167538
167546
167547
167540
167520
167486
167445
167417
167413
167419
167436
167466
2.90217e+07
597399
215785
216966
217149
212874
206666
205207
186869
133592
100378
99632.1
102578
109291
117875
127207
136970
147233
158295
170797
185655
201878
213522
218017
218746
217537
200240
146225
118977
118875
122455
128744
134888
140052
144748
149444
154328
159412
164634
169916
175360
181729
191162
204269
211300
211032
200749
161564
134597
133435
135400
140155
145271
149098
152064
154893
157963
161357
164931
168407
171574
174594
178288
184665
194625
199901
199773
192443
165434
145414
144148
145235
148571
152924
156206
158398
160296
162402
164912
167708
170414
172725
174789
177317
181754
189051
193914
193995
190635
174209
153253
149209
149436
151155
154521
157862
159904
161177
162369
163854
165781
167943
169904
171530
173185
175641
180214
185675
187656
187343
182084
165790
153003
151689
152279
154297
157564
160343
161716
162509
163261
164241
165649
167446
169229
170677
171981
173759
177083
181712
184584
184529
181229
169774
157438
154501
154786
156885
160566
164007
165637
165926
166007
166350
167258
168689
170203
171490
172929
175708
180847
184775
184186
178043
164389
155100
154143
155530
159777
164518
166722
166747
166525
166691
167597
169069
170848
173390
177524
182394
181952
177427
166138
155659
153887
156129
161770
166933
168821
168756
168941
171324
177531
184114
180875
171635
158829
155160
156489
162242
168328
173888
179458
180999
175799
166972
160451
158402
163775
174145
176217
173797
168056
164543
164711
167245
170401
170762
169795
167804
167043
167233
168302
169273
169315
168969
168331
168136
168209
168514
168750
168717
168586
168474
168447
168547
168703
168722
168678
168550
168418
168360
168347
168332
168288
168203
168117
168083
168075
168108
168176
168242
168273
168266
168252
168224
168173
168105
168050
168042
168059
168092
168141
168180
168179
168148
168100
168026
167919
167792
167678
167616
167595
167593
167607
167653
167737
167848
167934
167966
167969
167956
167916
167838
167717
167572
167455
167408
167396
167392
167399
167417
167440
167457
167464
167466
167472
167486
167506
167524
167533
167535
167526
167503
167470
167446
167442
167447
167460
167471
2.90207e+07
602101
215983
217400
217846
213351
207064
205836
187125
132900
100293
99719
102782
109580
118171
127445
137110
147264
158231
170649
185394
201501
213222
217820
218546
217300
200099
146175
118856
118742
122323
128625
134766
139901
144546
149162
153938
158919
164072
169339
174841
181382
191058
204226
211037
210724
200133
160649
134310
133300
135321
140128
145262
149095
152074
154917
157999
161397
164964
168426
171577
174603
178366
184910
194921
199932
199694
191863
164233
144909
143794
144928
148300
152590
155779
157910
159772
161853
164349
167141
169856
172207
174365
177043
181713
189254
194070
194158
190640
173719
152965
149232
149499
151277
154684
157996
160002
161267
162464
163951
165865
167998
169922
171516
173155
175642
180320
185920
187910
187607
182296
166000
153570
152430
153098
155249
158666
161440
162748
163489
164194
165111
166413
168089
169746
171086
172312
174052
177460
182185
184807
184684
181163
169298
157105
154456
154789
156935
160651
164076
165673
165998
166125
166566
167593
169127
170693
171964
173300
175862
180742
184713
184096
177998
164314
154722
153656
155086
159446
164316
166626
166751
166597
166803
167696
169087
170730
173105
177136
181973
181721
177518
166587
156141
154271
156470
162184
167383
168885
168370
168257
170443
176637
183567
180446
171664
159560
156192
157448
162632
168031
173282
178869
180798
175760
167168
160628
158454
163607
173917
176174
173843
168153
164582
164729
167252
170420
170781
169813
167808
167016
167184
168243
169252
169313
168991
168377
168172
168230
168498
168699
168665
168548
168461
168452
168576
168726
168737
168689
168565
168455
168420
168414
168396
168334
168228
168120
168076
168058
168080
168137
168197
168243
168261
168257
168246
168213
168153
168083
168046
168055
168075
168114
168156
168167
168144
168103
168041
167953
167846
167738
167666
167640
167635
167646
167690
167775
167887
167967
167993
167994
167974
167925
167837
167707
167563
167468
167440
167431
167432
167445
167466
167482
167482
167472
167459
167453
167459
167474
167493
167508
167516
167515
167500
167477
167460
167456
167459
167465
167459
2.9017e+07
605749
216395
218006
218712
214028
207662
206607
187280
131896
100067
99622.6
102799
109637
118198
127397
136980
147054
157938
170292
184984
201060
212907
217678
218459
217208
200110
146254
118787
118652
122241
128556
134696
139807
144398
148940
153639
158551
163666
168942
174508
181154
190979
204221
210949
210622
199842
160151
134238
133335
135402
140241
145368
149178
152138
154963
158036
161436
165017
168489
171645
174680
178497
185192
195258
200040
199667
191327
163095
144411
143437
144612
148008
152229
155326
157393
159210
161258
163726
166498
169213
171604
173842
176627
181497
189250
194065
194186
190565
173285
152767
149308
149644
151508
154988
158302
160275
161505
162662
164103
165962
168033
169882
171409
173013
175507
180272
186031
188017
187715
182299
165971
153942
152960
153695
155962
159542
162378
163687
164435
165153
166070
167329
168915
170471
171728
172890
174613
178154
182959
185233
185023
181301
168918
156847
154494
154842
156965
160608
163941
165505
165870
166066
166576
167690
169311
170961
172291
173625
176097
180801
184889
184288
178270
164557
154556
153297
154694
159063
164004
166456
166679
166533
166729
167623
169010
170666
173007
176999
181861
181685
177598
166969
156704
154856
157010
162644
167595
168688
167843
167442
169423
175588
183151
180577
172325
160742
157413
158463
163000
167779
172644
178099
180127
175373
167263
160974
158777
163751
173815
175981
173669
168060
164651
164841
167398
170466
170756
169739
167726
167006
167214
168316
169277
169320
168985
168387
168201
168256
168492
168643
168596
168487
168426
168444
168604
168755
168761
168705
168583
168490
168475
168477
168460
168390
168260
168130
168075
168048
168058
168099
168149
168200
168248
168268
168270
168256
168210
168134
168065
168048
168058
168081
168118
168140
168130
168098
168050
167985
167903
167810
167732
167697
167691
167701
167742
167822
167925
167999
168020
168018
167993
167937
167839
167704
167568
167498
167481
167476
167483
167501
167519
167521
167511
167490
167463
167441
167437
167445
167459
167475
167486
167490
167483
167472
167464
167462
167462
167460
167440
2.90128e+07
605409
217304
218966
219790
215030
208523
207470
187188
130441
99635.8
99329.5
102619
109481
118011
127166
136710
146749
157600
169939
184618
200644
212519
217419
218224
216993
200070
146335
118726
118586
122199
128529
134657
139749
144319
148834
153509
158414
163548
168864
174480
181159
191006
204258
210999
210729
199842
160017
134354
133516
135614
140474
145577
149354
152287
155094
158150
161535
165102
168567
171730
174794
178682
185520
195630
200209
199694
190857
162080
143978
143119
144330
147754
151923
154941
156955
158738
160761
163204
165948
168643
171043
173326
176208
181215
189127
193942
194107
190420
172915
152624
149358
149753
151692
155243
158574
160528
161732
162857
164254
166049
168026
169780
171249
172815
175301
180175
186005
187912
187595
182045
165611
153999
153184
153974
156334
160012
162896
164212
164972
165721
166677
167968
169545
171064
172316
173504
175292
179093
184041
185868
185533
181591
168580
156622
154559
154900
156949
160459
163671
165181
165562
165820
166424
167618
169297
171007
172405
173786
176243
180872
185230
184685
178881
165161
154629
153129
154450
158767
163715
166189
166427
166297
166492
167352
168715
170396
172868
177071
182061
181902
177838
167303
157235
155474
157593
163030
167631
168422
167489
167040
168816
174695
182812
181303
173474
162021
158353
159108
163352
167912
172570
177619
179040
174467
166915
161384
159441
164383
174004
175707
173310
167761
164725
165026
167723
170532
170643
169487
167520
167000
167316
168517
169352
169345
168949
168351
168212
168286
168521
168611
168542
168419
168372
168422
168620
168782
168790
168731
168610
168529
168525
168529
168515
168445
168303
168146
168077
168042
168036
168060
168101
168156
168225
168285
168302
168303
168270
168198
168105
168045
168040
168048
168071
168097
168104
168087
168057
168017
167962
167888
167810
167766
167758
167766
167800
167869
167960
168026
168044
168040
168012
167951
167848
167711
167588
167537
167524
167523
167535
167556
167565
167558
167541
167513
167475
167438
167419
167416
167422
167433
167444
167455
167464
167465
167466
167466
167462
167455
167424
2.90091e+07
603778
218072
219622
220566
215895
209273
208194
186827
128818
99094.7
98926.9
102289
109179
117703
126836
136350
146360
157195
169529
184208
200247
212195
217170
218024
216843
200047
146342
118708
118581
122235
128593
134725
139812
144382
148909
153617
158576
163771
169131
174740
181344
191077
204387
211251
211068
200114
160111
134599
133807
135929
140799
145864
149593
152498
155293
158345
161723
165279
168735
171896
174978
178917
185851
195958
200368
199736
190461
161262
143657
142871
144108
147562
151693
154648
156620
158384
160405
162857
165614
168301
170673
172940
175837
180910
188907
193690
193863
190107
172504
152448
149325
149764
151759
155371
158730
160691
161893
163009
164390
166147
168054
169735
171152
172701
175221
180170
185996
187742
187357
181554
164937
153770
153111
153954
156387
160104
162991
164309
165074
165845
166851
168230
169864
171396
172678
173948
175887
179957
185061
186535
186137
181971
168204
156446
154660
154963
156899
160249
163337
164785
165155
165435
166098
167367
169110
170881
172355
173818
176299
180851
185639
185225
179772
166079
154897
153104
154327
158561
163469
165893
166052
165860
166005
166826
168182
169944
172719
177345
182649
182403
178139
167468
157608
155982
158011
163259
167444
167999
167038
166591
168290
174008
182473
181829
174433
162978
158746
159261
163465
168203
173283
177914
177664
173125
165990
161412
160158
165533
174543
175427
172763
167220
164781
165320
168279
170607
170488
169043
167204
166938
167471
168833
169477
169393
168873
168276
168205
168327
168570
168605
168507
168353
168315
168390
168623
168805
168817
168761
168645
168573
168568
168569
168554
168490
168351
168173
168077
168035
168015
168021
168054
168116
168205
168299
168343
168350
168329
168265
168161
168063
168020
168016
168023
168042
168064
168074
168064
168047
168015
167961
167888
167837
167825
167828
167853
167909
167986
168048
168064
168058
168029
167967
167863
167729
167618
167577
167567
167568
167583
167602
167604
167593
167572
167540
167494
167441
167402
167387
167384
167389
167401
167417
167436
167455
167468
167471
167465
167455
167414
2.90058e+07
601964
218544
219921
220786
216214
209488
208253
186192
127695
98662.6
98559.3
101978
108894
117438
126586
136112
146140
157005
169371
184056
200146
212241
217269
218195
217079
200079
146059
118731
118659
122381
128770
134893
139971
144552
149128
153917
158971
164237
169604
175151
181654
191266
204646
211711
211614
200606
160389
134929
134159
136287
141153
146172
149845
152721
155513
158572
161950
165483
168895
172013
175082
179038
186041
196185
200450
199729
190149
160738
143522
142780
144060
147547
151666
154597
156558
158320
160346
162806
165550
168206
170536
172744
175585
180622
188594
193318
193477
189673
172099
152259
149213
149670
151690
155326
158701
160678
161899
163038
164452
166238
168155
169821
171217
172769
175325
180376
186107
187618
187117
180940
164023
153343
152796
153666
156151
159896
162778
164113
164892
165690
166753
168216
169929
171521
172865
174236
176343
180576
185775
187055
186628
182170
167635
156217
154724
155029
156905
160112
163041
164428
164780
165040
165685
166966
168764
170637
172220
173767
176267
180757
186022
185717
180773
167182
155310
153114
154230
158368
163212
165572
165628
165346
165424
166251
167706
169650
172742
177871
183440
183083
178322
167136
157595
156188
158294
163344
167127
167581
166725
166356
168048
173496
181893
182405
175153
163520
158622
158754
163139
168671
174795
178549
176483
171389
164427
160840
160838
167262
175433
175223
171947
166392
164792
165772
169104
170760
170334
168444
166835
166785
167647
169158
169612
169439
168780
168224
168212
168388
168614
168615
168477
168293
168268
168366
168627
168822
168837
168784
168677
168618
168607
168604
168584
168522
168392
168206
168073
168022
167991
167985
168011
168080
168190
168316
168389