/*--------------------------------*- C++ -*----------------------------------*\
| =========                 |                                                 |
| \\      /  F ield         | OpenFOAM: The Open Source CFD Toolbox           |
|  \\    /   O peration     | Version:  2306                                  |
|   \\  /    A nd           | Website:  www.openfoam.com                      |
|    \\/     M anipulation  |                                                 |
\*---------------------------------------------------------------------------*/
FoamFile
{
    version     2.0;
    format      ascii;
    arch        "LSB;label=32;scalar=64";
    class       volVectorField;
    location    "0.1";
    object      U;
}
// * * * * * * * * * * * * * * * * * * * * * * * * * * * * * * * * * * * * * //

dimensions      [0 1 -1 0 0 0 0];

internalField   nonuniform List<vector> 
6000
(
(500 4.28246e-14 0)
(500 1.26323e-13 0)
(500 1.58838e-13 0)
(500 9.364e-14 0)
(500 2.69314e-14 0)
(500 3.75311e-14 0)
(500 4.97087e-14 0)
(500 9.04032e-14 0)
(500 6.89099e-14 0)
(500 1.00102e-13 0)
(500 2.12768e-13 0)
(500 1.94437e-13 0)
(500 1.93739e-13 0)
(500 1.22068e-13 0)
(500 1.08358e-13 0)
(500 4.45188e-14 0)
(500 8.52805e-14 0)
(500 6.74188e-14 0)
(500 1.59785e-13 0)
(500 9.28541e-14 0)
(500 1.01218e-13 0)
(500 3.9695e-14 0)
(500 -1.87561e-14 0)
(500 -6.0734e-15 0)
(500 -2.93968e-14 0)
(500 -9.5676e-14 0)
(500 -1.10483e-13 0)
(500 -2.21359e-13 0)
(500 -2.04191e-13 0)
(500 -4.95353e-14 0)
(500 9.98469e-14 0)
(500 1.36954e-13 0)
(500 2.1308e-13 0)
(500 -2.88853e-14 0)
(500 8.20697e-13 0)
(500 -1.08644e-12 0)
(500 7.79057e-13 0)
(500 4.25828e-12 0)
(500 4.70721e-11 0)
(500 -5.49895e-10 0)
(500 3.09258e-09 0)
(500 -9.3336e-09 0)
(500 1.6615e-08 0)
(500 5.85279e-08 0)
(500 -4.14639e-07 0)
(499.999 1.70873e-06 0)
(499.997 -2.96165e-06 0)
(499.992 3.68546e-06 0)
(499.98 9.39823e-06 0)
(499.953 -2.68076e-05 0)
(499.896 4.64249e-05 0)
(499.788 6.66229e-05 0)
(499.61 -0.000247293 0)
(499.394 0.000450298 0)
(499.263 0.000146236 0)
(499.249 -4.61592e-05 0)
(499.261 -5.09576e-05 0)
(499.317 -2.54407e-05 0)
(499.45 -0.000340807 0)
(499.677 0.000533121 0)
(499.996 0.00109118 0)
(500.389 -0.00210414 0)
(500.829 -0.000366963 0)
(501.286 0.00550981 0)
(501.746 0.000160497 0)
(502.198 -0.00664533 0)
(502.627 0.00106953 0)
(503.019 0.00973744 0)
(503.38 0.000237672 0)
(503.706 -0.0083041 0)
(503.989 -0.000776395 0)
(504.217 0.00928149 0)
(504.405 0.00335952 0)
(504.561 -0.00548249 0)
(504.689 -0.0046109 0)
(504.793 0.00194744 0)
(504.875 0.00521662 0)
(504.949 0.000670079 0)
(505.017 -0.0033456 0)
(505.079 -0.00270369 0)
(505.135 0.000731158 0)
(505.183 0.00299219 0)
(505.231 0.000355231 0)
(505.273 -0.00187419 0)
(505.304 -0.00161707 0)
(505.314 -9.85854e-05 0)
(505.314 0.00101419 0)
(505.313 0.000705224 0)
(505.312 -0.000224491 0)
(505.309 -0.000711868 0)
(505.303 -0.000610871 0)
(505.292 -0.000248728 0)
(505.277 0.000193382 0)
(505.257 0.000504435 0)
(505.235 -6.11669e-05 0)
(505.213 -0.000641051 0)
(505.194 1.05738e-06 0)
(505.177 0.000393091 0)
(505.164 0.000143777 0)
(505.154 -0.000220265 0)
(505.145 -0.000269896 0)
(505.138 -7.18668e-05 0)
(505.133 8.77963e-05 0)
(505.128 7.65034e-05 0)
(505.125 -3.32313e-05 0)
(505.121 -6.45271e-05 0)
(505.118 -5.44631e-05 0)
(505.115 1.49945e-05 0)
(505.112 4.61127e-05 0)
(505.11 1.67465e-05 0)
(505.109 -1.47168e-05 0)
(505.109 -3.64723e-05 0)
(505.109 -1.93214e-05 0)
(505.11 2.56986e-05 0)
(505.111 3.91425e-05 0)
(505.113 3.92966e-05 0)
(505.117 1.70603e-05 0)
(505.122 -2.51614e-05 0)
(505.129 -3.50324e-05 0)
(505.137 -4.61014e-05 0)
(505.146 -5.22002e-05 0)
(505.155 -5.818e-06 0)
(505.165 -2.14019e-05 0)
(505.174 1.00959e-05 0)
(505.182 6.35957e-05 0)
(505.189 8.78349e-05 0)
(505.196 6.75472e-05 0)
(505.2 3.49896e-05 0)
(505.202 -4.39466e-06 0)
(505.203 -3.29399e-05 0)
(505.203 -6.04665e-05 0)
(505.203 -7.20714e-05 0)
(505.203 -1.75539e-05 0)
(505.201 2.42984e-05 0)
(505.198 3.88458e-05 0)
(505.193 3.14858e-05 0)
(505.187 1.65192e-06 0)
(505.18 -3.15714e-05 0)
(505.174 -4.4162e-05 0)
(505.167 -5.5324e-05 0)
(505.162 -5.7636e-05 0)
(505.157 -5.4133e-05 0)
(505.154 -4.3741e-05 0)
(505.152 -2.86752e-05 0)
(505.15 -1.78463e-05 0)
(505.148 -1.40559e-05 0)
(505.146 -1.45659e-05 0)
(505.143 -1.27481e-05 0)
(505.141 9.92219e-06 0)
(505.138 3.65782e-05 0)
(505.135 4.92968e-05 0)
(505.132 4.63801e-05 0)
(505.128 2.70262e-05 0)
(505.123 -2.04124e-05 0)
(505.117 -4.0386e-05 0)
(505.114 -3.74333e-05 0)
(505.113 -3.3711e-05 0)
(505.113 -1.48811e-05 0)
(505.114 2.26201e-05 0)
(505.116 5.12017e-05 0)
(505.121 6.65625e-06 0)
(505.129 -1.03272e-05 0)
(505.139 -3.9437e-05 0)
(505.15 -3.94758e-05 0)
(505.16 -2.99123e-05 0)
(505.167 -2.37217e-05 0)
(505.172 7.95863e-07 0)
(505.176 6.0377e-05 0)
(505.179 8.00279e-05 0)
(505.183 7.87014e-05 0)
(505.187 6.16482e-05 0)
(505.192 3.84224e-06 0)
(505.197 -4.31836e-05 0)
(505.201 -5.99386e-05 0)
(505.202 -7.52725e-05 0)
(505.202 -5.63143e-05 0)
(505.2 3.5696e-05 0)
(505.199 7.7937e-05 0)
(505.198 9.88929e-05 0)
(505.196 0.000106038 0)
(505.193 6.54886e-05 0)
(505.189 -1.91676e-05 0)
(505.184 -9.33808e-05 0)
(505.177 -0.000131834 0)
(505.171 -0.000144927 0)
(505.165 -0.000129394 0)
(505.159 -5.27589e-05 0)
(505.155 1.89124e-05 0)
(505.152 5.15375e-05 0)
(505.149 6.78384e-05 0)
(505.148 6.86981e-05 0)
(505.147 3.11341e-05 0)
(505.146 3.65096e-06 0)
(505.145 -1.03138e-05 0)
(505.144 -2.75177e-05 0)
(505.142 -1.89358e-05 0)
(505.139 1.81564e-06 0)
(505.137 7.43443e-06 0)
(505.135 9.62021e-06 0)
(505.132 -4.13136e-06 0)
(505.128 1.062e-06 0)
(505.122 -1.77376e-05 0)
(505.115 -3.38773e-05 0)
(505.111 -5.28192e-05 0)
(505.109 -8.03005e-05 0)
(505.109 -5.98393e-05 0)
(505.109 -3.21605e-05 0)
(505.112 -2.14961e-05 0)
(505.117 1.52627e-06 0)
(505.125 5.05494e-05 0)
(505.136 8.48764e-05 0)
(505.149 0.000128819 0)
(505.161 0.000137366 0)
(505.171 1.11563e-05 0)
(505.177 -0.000123696 0)
(505.181 -0.000148951 0)
(505.184 -0.000148094 0)
(505.186 -7.28491e-05 0)
(505.187 8.11817e-05 0)
(505.189 0.000125986 0)
(505.193 0.000128331 0)
(505.197 0.00012093 0)
(505.202 4.04831e-05 0)
(505.205 -5.59412e-05 0)
(505.206 -9.6922e-05 0)
(505.206 -0.000104599 0)
(505.205 -5.71615e-05 0)
(505.203 0.000113323 0)
(505.2 0.000189333 0)
(505.196 0.00020311 0)
(505.191 0.000197492 0)
(505.185 8.90491e-05 0)
(505.18 -0.000141816 0)
(505.173 -0.000275818 0)
(505.167 -0.000284197 0)
(505.161 -0.000275692 0)
(505.156 -0.000195085 0)
(505.151 1.966e-06 0)
(505.148 0.000170738 0)
(505.146 0.000223056 0)
(505.144 0.0002381 0)
(505.144 0.000208434 0)
(505.145 5.57e-05 0)
(505.145 -7.85088e-05 0)
(505.144 -0.000124374 0)
(505.142 -0.000143299 0)
(505.139 -0.000139961 0)
(505.134 -5.68643e-05 0)
(505.129 2.87976e-05 0)
(505.124 5.12223e-05 0)
(505.117 7.61727e-05 0)
(505.108 0.000110038 0)
(505.101 0.000109058 0)
(505.099 -5.67874e-05 0)
(505.099 -0.000115564 0)
(505.1 -0.000119226 0)
(505.101 -0.000101498 0)
(505.105 -3.69712e-05 0)
(505.112 1.06339e-05 0)
(505.123 6.02122e-05 0)
(505.137 0.000171293 0)
(505.151 0.000132744 0)
(505.164 9.60604e-06 0)
(505.174 -3.59853e-05 0)
(505.18 -5.80098e-05 0)
(505.183 -0.000114924 0)
(505.186 -0.000156716 0)
(505.188 -5.41612e-05 0)
(505.192 8.11098e-05 0)
(505.196 0.000180948 0)
(505.201 0.000260925 0)
(505.206 0.000245791 0)
(505.211 0.000178072 0)
(505.214 2.83563e-05 0)
(505.215 -0.000110684 0)
(505.215 -0.000196281 0)
(505.214 -0.000256979 0)
(505.213 -0.000272144 0)
(505.211 -0.000263303 0)
(505.207 -0.000173174 0)
(505.202 -4.11765e-05 0)
(505.196 4.86881e-05 0)
(505.188 7.81542e-05 0)
(505.18 9.84935e-05 0)
(505.172 0.000123305 0)
(505.164 0.000132521 0)
(505.159 0.000128428 0)
(505.154 0.000108544 0)
(505.15 3.56503e-05 0)
(505.149 -8.36909e-05 0)
(505.148 -0.000154691 0)
(505.145 -0.000170303 0)
(505.142 -0.000185209 0)
(505.138 -0.000175448 0)
(505.134 -6.82561e-05 0)
(505.129 9.63241e-05 0)
(505.124 0.000156332 0)
(505.12 0.000172213 0)
(505.115 0.000176531 0)
(505.104 7.19044e-05 0)
(500 1.03667e-13 0)
(500 3.54906e-13 0)
(500 3.16297e-13 0)
(500 1.40566e-13 0)
(500 1.388e-13 0)
(500 1.02384e-13 0)
(500 1.1781e-13 0)
(500 9.74898e-14 0)
(500 1.25929e-13 0)
(500 1.98453e-13 0)
(500 2.84503e-13 0)
(500 2.36299e-13 0)
(500 3.08021e-13 0)
(500 2.43361e-13 0)
(500 2.22564e-13 0)
(500 1.31241e-13 0)
(500 5.91975e-14 0)
(500 -4.95144e-14 0)
(500 9.20871e-14 0)
(500 -3.67895e-14 0)
(500 5.46852e-14 0)
(500 4.71093e-14 0)
(500 4.44257e-15 0)
(500 -1.37278e-14 0)
(500 -2.13942e-13 0)
(500 -2.77687e-13 0)
(500 -2.56868e-13 0)
(500 -2.51936e-13 0)
(500 -7.77743e-14 0)
(500 2.59367e-13 0)
(500 3.7771e-13 0)
(500 4.06563e-13 0)
(500 3.79647e-13 0)
(500 -1.35433e-13 0)
(500 1.61717e-12 0)
(500 -4.02357e-12 0)
(500 5.05444e-12 0)
(500 1.05051e-11 0)
(500 2.90168e-11 0)
(500 -6.81897e-10 0)
(500 4.66415e-09 0)
(500 -1.56624e-08 0)
(500 1.58177e-08 0)
(500 1.30282e-07 0)
(500 -8.46054e-07 0)
(499.999 2.72899e-06 0)
(499.997 -5.42082e-06 0)
(499.992 1.90699e-06 0)
(499.98 2.2185e-05 0)
(499.953 -6.67788e-05 0)
(499.896 6.66967e-05 0)
(499.788 0.000165115 0)
(499.61 -0.0005923 0)
(499.394 0.000595736 0)
(499.263 0.000185156 0)
(499.249 -0.00013989 0)
(499.261 -0.000135161 0)
(499.317 -0.000138449 0)
(499.45 -0.000330217 0)
(499.677 0.000607584 0)
(499.996 0.000550482 0)
(500.39 -0.00221504 0)
(500.828 0.000662634 0)
(501.286 0.0049187 0)
(501.749 -0.00182816 0)
(502.199 -0.00710964 0)
(502.625 0.00302043 0)
(503.019 0.00911028 0)
(503.384 -0.00203038 0)
(503.707 -0.00954115 0)
(503.986 0.00120271 0)
(504.216 0.00996321 0)
(504.409 0.00273349 0)
(504.564 -0.00682674 0)
(504.689 -0.00510229 0)
(504.791 0.00312853 0)
(504.875 0.00552776 0)
(504.952 0.000977242 0)
(505.019 -0.00376016 0)
(505.079 -0.00292177 0)
(505.134 0.00161965 0)
(505.184 0.00350958 0)
(505.233 0.000817189 0)
(505.275 -0.00219731 0)
(505.303 -0.00182988 0)
(505.314 -7.7989e-06 0)
(505.314 0.0012848 0)
(505.314 0.00113207 0)
(505.313 6.77718e-05 0)
(505.31 -0.000801004 0)
(505.303 -0.000848098 0)
(505.292 -0.000341813 0)
(505.277 0.000414679 0)
(505.257 0.00083983 0)
(505.235 0.000155775 0)
(505.213 -0.00054572 0)
(505.193 -3.6523e-05 0)
(505.177 0.000431449 0)
(505.164 8.994e-05 0)
(505.154 -0.000446196 0)
(505.146 -0.000419945 0)
(505.139 -5.15882e-05 0)
(505.133 0.000289205 0)
(505.128 0.000296889 0)
(505.124 2.61509e-05 0)
(505.121 -7.4396e-05 0)
(505.118 -0.000105666 0)
(505.115 -6.67637e-05 0)
(505.112 -1.78775e-05 0)
(505.11 -2.28615e-05 0)
(505.109 -2.23503e-05 0)
(505.109 -1.85523e-05 0)
(505.109 1.49403e-05 0)
(505.11 6.78495e-05 0)
(505.111 8.73259e-05 0)
(505.113 8.68826e-05 0)
(505.117 5.43198e-05 0)
(505.122 -1.62199e-05 0)
(505.129 -5.81821e-05 0)
(505.137 -0.000110944 0)
(505.146 -0.00015974 0)
(505.155 -0.000104152 0)
(505.165 -8.43969e-05 0)
(505.174 -2.96081e-05 0)
(505.182 5.3041e-05 0)
(505.19 0.000107212 0)
(505.196 0.000120256 0)
(505.2 9.63948e-05 0)
(505.202 3.79239e-05 0)
(505.203 -2.49179e-06 0)
(505.203 -3.80041e-05 0)
(505.203 -8.80788e-05 0)
(505.203 -5.02358e-05 0)
(505.201 1.2267e-05 0)
(505.198 5.30574e-05 0)
(505.193 8.0459e-05 0)
(505.187 8.47526e-05 0)
(505.18 5.20819e-05 0)
(505.174 -1.0567e-05 0)
(505.167 -4.85272e-05 0)
(505.162 -5.16584e-05 0)
(505.157 -5.16503e-05 0)
(505.154 -4.35032e-05 0)
(505.152 -4.80202e-05 0)
(505.15 -9.25133e-05 0)
(505.148 -0.000127399 0)
(505.146 -0.000152785 0)
(505.144 -0.000155262 0)
(505.141 -3.05695e-05 0)
(505.138 0.000123856 0)
(505.135 0.000183843 0)
(505.132 0.00026586 0)
(505.127 0.000275356 0)
(505.123 4.71487e-05 0)
(505.117 -0.000136494 0)
(505.114 -0.000160999 0)
(505.113 -0.000169427 0)
(505.113 -0.000128638 0)
(505.114 1.06112e-05 0)
(505.116 0.000167187 0)
(505.121 0.000147849 0)
(505.129 0.000109697 0)
(505.139 7.72785e-06 0)
(505.15 -8.62588e-05 0)
(505.16 -0.000205657 0)
(505.167 -0.000358522 0)
(505.173 -0.000324556 0)
(505.176 -8.58004e-06 0)
(505.179 0.000219731 0)
(505.183 0.00027651 0)
(505.187 0.000297566 0)
(505.192 0.000229439 0)
(505.197 3.82636e-05 0)
(505.201 -0.000125531 0)
(505.202 -0.00024721 0)
(505.202 -0.000337894 0)
(505.201 -0.000209529 0)
(505.2 6.29772e-06 0)
(505.198 0.000118733 0)
(505.196 0.000266077 0)
(505.193 0.000361268 0)
(505.189 0.000285744 0)
(505.183 3.18899e-05 0)
(505.177 -0.000159735 0)
(505.17 -0.000248247 0)
(505.164 -0.000344382 0)
(505.159 -0.000318651 0)
(505.155 -0.00011932 0)
(505.152 4.71788e-05 0)
(505.149 0.000149561 0)
(505.148 0.0002502 0)
(505.147 0.000173542 0)
(505.146 5.22484e-05 0)
(505.145 -1.21446e-05 0)
(505.144 -9.62637e-05 0)
(505.142 -0.000119055 0)
(505.139 -1.33295e-05 0)
(505.137 4.73559e-05 0)
(505.135 9.59261e-05 0)
(505.131 0.000152138 0)
(505.127 0.00010811 0)
(505.122 -2.28088e-05 0)
(505.115 -5.06716e-05 0)
(505.111 -8.93466e-05 0)
(505.109 -0.000150415 0)
(505.109 -0.000116317 0)
(505.109 -9.52169e-05 0)
(505.112 -0.000118957 0)
(505.117 -0.000149408 0)
(505.125 -4.21752e-05 0)
(505.137 0.000149031 0)
(505.149 0.000354429 0)
(505.161 0.000404031 0)
(505.171 0.000356388 0)
(505.177 4.49285e-05 0)
(505.181 -0.000267347 0)
(505.184 -0.000472973 0)
(505.186 -0.000616361 0)
(505.187 -0.000316227 0)
(505.19 0.000101766 0)
(505.193 0.000272161 0)
(505.198 0.000371614 0)
(505.202 0.000418259 0)
(505.205 0.00015432 0)
(505.206 -0.000204724 0)
(505.206 -0.000355783 0)
(505.206 -0.00050425 0)
(505.203 -0.000214364 0)
(505.2 0.00026872 0)
(505.196 0.000413468 0)
(505.191 0.000648588 0)
(505.185 0.000899341 0)
(505.179 0.000560149 0)
(505.173 -0.000241248 0)
(505.166 -0.00051313 0)
(505.161 -0.000670475 0)
(505.156 -0.00089898 0)
(505.152 -0.000776207 0)
(505.148 -0.000213309 0)
(505.146 0.000189699 0)
(505.145 0.000437647 0)
(505.144 0.000713306 0)
(505.145 0.000661713 0)
(505.145 0.000275267 0)
(505.143 1.5986e-05 0)
(505.141 -0.000175257 0)
(505.139 -0.000372262 0)
(505.134 -0.000409414 0)
(505.129 -0.000216217 0)
(505.124 -0.000122106 0)
(505.117 2.57639e-05 0)
(505.109 0.00023992 0)
(505.101 0.000549482 0)
(505.099 0.000258708 0)
(505.099 -0.00013157 0)
(505.099 -0.000220919 0)
(505.101 -0.000311418 0)
(505.105 -0.000333833 0)
(505.113 -0.000280705 0)
(505.124 -0.000107415 0)
(505.137 0.000224879 0)
(505.152 0.000347456 0)
(505.164 0.00028168 0)
(505.173 0.00023806 0)
(505.179 9.91398e-05 0)
(505.183 -0.000200928 0)
(505.186 -0.000419081 0)
(505.189 -0.000411851 0)
(505.192 -0.000344781 0)
(505.196 -0.000133773 0)
(505.201 0.00028471 0)
(505.206 0.000532615 0)
(505.211 0.000592946 0)
(505.214 0.000617265 0)
(505.215 0.000461658 0)
(505.215 -7.82913e-06 0)
(505.214 -0.000510865 0)
(505.213 -0.000643368 0)
(505.211 -0.000744476 0)
(505.207 -0.000702586 0)
(505.203 -0.000461284 0)
(505.196 -0.000193138 0)
(505.188 -2.76542e-05 0)
(505.18 0.000159047 0)
(505.172 0.000320047 0)
(505.164 0.000436148 0)
(505.159 0.000528253 0)
(505.154 0.000629021 0)
(505.15 0.000710012 0)
(505.149 0.000288036 0)
(505.147 -0.000221811 0)
(505.145 -0.00039958 0)
(505.142 -0.000540039 0)
(505.138 -0.000728231 0)
(505.134 -0.000761159 0)
(505.129 -0.00027445 0)
(505.125 0.000123726 0)
(505.12 0.000258049 0)
(505.115 0.000518246 0)
(505.103 0.000543538 0)
(500 3.39915e-14 0)
(500 2.307e-13 0)
(500 2.42674e-13 0)
(500 2.15673e-13 0)
(500 2.10814e-13 0)
(500 1.48223e-13 0)
(500 1.36372e-13 0)
(500 -1.26131e-14 0)
(500 1.30808e-13 0)
(500 1.67248e-13 0)
(500 2.84192e-13 0)
(500 3.70097e-13 0)
(500 4.19057e-13 0)
(500 3.45933e-13 0)
(500 3.27882e-13 0)
(500 2.76496e-13 0)
(500 -1.21916e-14 0)
(500 -1.94528e-13 0)
(500 -9.95458e-14 0)
(500 -1.35933e-13 0)
(500 -1.26972e-13 0)
(500 -2.6267e-14 0)
(500 1.24006e-13 0)
(500 -1.54604e-14 0)
(500 -1.21124e-13 0)
(500 -7.17556e-14 0)
(500 -8.71798e-14 0)
(500 -6.27882e-14 0)
(500 1.34468e-14 0)
(500 2.07528e-13 0)
(500 4.69901e-13 0)
(500 4.54255e-13 0)
(500 5.29686e-13 0)
(500 -3.53609e-13 0)
(500 2.66893e-12 0)
(500 -7.25196e-12 0)
(500 1.06789e-11 0)
(500 9.23647e-12 0)
(500 2.97647e-11 0)
(500 -9.12277e-10 0)
(500 6.64272e-09 0)
(500 -2.26065e-08 0)
(500 2.59671e-08 0)
(500 1.79588e-07 0)
(500 -1.20501e-06 0)
(499.999 4.01709e-06 0)
(499.997 -7.83465e-06 0)
(499.992 3.30841e-06 0)
(499.98 2.96615e-05 0)
(499.953 -9.14868e-05 0)
(499.896 8.82933e-05 0)
(499.788 0.000235523 0)
(499.61 -0.000835926 0)
(499.394 0.00083457 0)
(499.264 0.000284479 0)
(499.249 -0.000210741 0)
(499.261 -0.000211097 0)
(499.317 -0.000268041 0)
(499.45 -0.00030753 0)
(499.677 0.000891435 0)
(499.997 -0.000209573 0)
(500.39 -0.00250071 0)
(500.828 0.00279375 0)
(501.286 0.0045191 0)
(501.75 -0.00525753 0)
(502.199 -0.00662798 0)
(502.623 0.00716838 0)
(503.019 0.00781073 0)
(503.385 -0.00661805 0)
(503.708 -0.00969835 0)
(503.984 0.0056057 0)
(504.215 0.0103659 0)
(504.41 -0.000177804 0)
(504.564 -0.00866016 0)
(504.689 -0.00403974 0)
(504.79 0.00513862 0)
(504.875 0.00520641 0)
(504.953 -0.000413343 0)
(505.019 -0.00458481 0)
(505.079 -0.00242004 0)
(505.133 0.00292102 0)
(505.184 0.00355497 0)
(505.233 0.000130862 0)
(505.275 -0.00272843 0)
(505.304 -0.00202071 0)
(505.314 0.000386585 0)
(505.315 0.0015403 0)
(505.314 0.00132309 0)
(505.313 -3.65828e-05 0)
(505.31 -0.0010254 0)
(505.304 -0.000957854 0)
(505.293 -0.000317253 0)
(505.277 0.000596263 0)
(505.257 0.000900875 0)
(505.235 -7.66138e-05 0)
(505.213 -0.000699151 0)
(505.193 9.28157e-05 0)
(505.177 0.000624702 0)
(505.164 0.000109562 0)
(505.154 -0.000635376 0)
(505.146 -0.000560599 0)
(505.139 -2.83206e-05 0)
(505.133 0.000448764 0)
(505.128 0.000449356 0)
(505.124 1.03762e-05 0)
(505.121 -0.000168721 0)
(505.118 -0.000208654 0)
(505.115 -0.000115201 0)
(505.113 -3.83537e-05 0)
(505.11 -6.57304e-05 0)
(505.109 -7.16843e-05 0)
(505.109 -3.75942e-05 0)
(505.109 5.20954e-05 0)
(505.11 0.00010053 0)
(505.111 9.87979e-05 0)
(505.114 9.19549e-05 0)
(505.117 4.37941e-05 0)
(505.122 -5.61316e-05 0)
(505.129 -0.000112821 0)
(505.137 -0.000152443 0)
(505.146 -0.000166536 0)
(505.155 -0.000153325 0)
(505.165 -9.75683e-05 0)
(505.174 2.69565e-05 0)
(505.182 0.000139869 0)
(505.19 0.000172892 0)
(505.196 0.000162246 0)
(505.2 9.87353e-05 0)
(505.202 1.43714e-05 0)
(505.203 -2.46884e-05 0)
(505.203 -6.60309e-05 0)
(505.203 -6.80802e-05 0)
(505.203 -4.15553e-05 0)
(505.201 2.35489e-05 0)
(505.198 6.93967e-05 0)
(505.193 8.93735e-05 0)
(505.187 7.61945e-05 0)
(505.18 4.63476e-06 0)
(505.173 -8.75855e-05 0)
(505.167 -7.56774e-05 0)
(505.162 -3.33293e-05 0)
(505.157 1.28389e-05 0)
(505.154 5.29632e-05 0)
(505.152 4.33059e-05 0)
(505.15 -8.25197e-05 0)
(505.148 -0.000158888 0)
(505.146 -0.000189973 0)
(505.144 -0.000216211 0)
(505.141 -0.000108458 0)
(505.138 0.000119866 0)
(505.135 0.000222441 0)
(505.132 0.000297822 0)
(505.127 0.000362616 0)
(505.122 0.000232313 0)
(505.117 -0.000139518 0)
(505.114 -0.000217663 0)
(505.113 -0.000232068 0)
(505.113 -0.000188619 0)
(505.114 -6.04658e-05 0)
(505.116 0.000105199 0)
(505.121 0.000143655 0)
(505.129 0.000147212 0)
(505.139 4.0265e-05 0)
(505.149 -7.63527e-05 0)
(505.159 -0.000210413 0)
(505.167 -0.000355046 0)
(505.173 -0.000395226 0)
(505.177 -0.000201715 0)
(505.179 0.000178034 0)
(505.183 0.000327987 0)
(505.187 0.000363612 0)
(505.192 0.000339239 0)
(505.197 0.000180363 0)
(505.2 -2.31738e-05 0)
(505.202 -0.000200525 0)
(505.202 -0.000315225 0)
(505.201 -0.000354611 0)
(505.2 -0.000172363 0)
(505.198 1.24788e-05 0)
(505.196 0.000230577 0)
(505.193 0.000391277 0)
(505.189 0.000405254 0)
(505.183 0.000236243 0)
(505.177 -1.88937e-05 0)
(505.17 -0.00020459 0)
(505.164 -0.000363349 0)
(505.159 -0.000391302 0)
(505.155 -0.000265844 0)
(505.152 -6.11072e-05 0)
(505.15 9.99788e-05 0)
(505.148 0.000259669 0)
(505.147 0.000277319 0)
(505.146 0.000155669 0)
(505.145 5.50321e-05 0)
(505.143 -6.32067e-05 0)
(505.142 -0.000137247 0)
(505.14 -6.539e-05 0)
(505.137 3.40582e-05 0)
(505.135 0.000115338 0)
(505.132 0.000201119 0)
(505.127 0.000201078 0)
(505.122 -1.68801e-06 0)
(505.115 -7.52483e-05 0)
(505.111 -0.000127118 0)
(505.109 -0.000231271 0)
(505.109 -0.000243466 0)
(505.109 -0.000223825 0)
(505.112 -0.000249047 0)
(505.117 -0.000235982 0)
(505.125 -6.29143e-05 0)
(505.137 0.000123163 0)
(505.15 0.000361059 0)
(505.162 0.000549911 0)
(505.171 0.000538971 0)
(505.177 0.000257084 0)
(505.181 -0.000135282 0)
(505.183 -0.000449151 0)
(505.185 -0.000657129 0)
(505.188 -0.000634221 0)
(505.19 -0.000251597 0)
(505.194 0.000191299 0)
(505.198 0.000415093 0)
(505.202 0.000462059 0)
(505.205 0.00035174 0)
(505.206 -5.83529e-05 0)
(505.206 -0.000337437 0)
(505.205 -0.000499855 0)
(505.203 -0.000455208 0)
(505.2 3.66795e-05 0)
(505.197 0.000319035 0)
(505.191 0.000613967 0)
(505.185 0.000929454 0)
(505.178 0.000952548 0)
(505.172 0.000335036 0)
(505.166 -0.000424771 0)
(505.16 -0.000722736 0)
(505.156 -0.000921362 0)
(505.152 -0.000982391 0)
(505.149 -0.000630105 0)
(505.147 -9.78107e-05 0)
(505.145 0.000299807 0)
(505.145 0.000706758 0)
(505.145 0.000858315 0)
(505.144 0.000563748 0)
(505.143 0.000234888 0)
(505.141 -3.34407e-05 0)
(505.138 -0.000314565 0)
(505.134 -0.000516998 0)
(505.13 -0.000380981 0)
(505.124 -0.000284588 0)
(505.117 -4.52568e-05 0)
(505.109 0.000139358 0)
(505.101 0.000447792 0)
(505.099 0.000470127 0)
(505.099 0.000138615 0)
(505.099 -0.00018673 0)
(505.101 -0.000341924 0)
(505.105 -0.000384441 0)
(505.113 -0.000385684 0)
(505.124 -0.000237727 0)
(505.138 4.94777e-05 0)
(505.152 0.000235897 0)
(505.164 0.00050614 0)
(505.173 0.000618886 0)
(505.179 0.000248076 0)
(505.182 -0.000270249 0)
(505.186 -0.000466468 0)
(505.189 -0.00052098 0)
(505.192 -0.000432104 0)
(505.197 -3.97287e-05 0)
(505.202 0.00029532 0)
(505.207 0.000517185 0)
(505.211 0.000785307 0)
(505.214 0.000855298 0)
(505.215 0.000467076 0)
(505.214 -0.000154137 0)
(505.213 -0.000424176 0)
(505.212 -0.00069264 0)
(505.211 -0.000891127 0)
(505.208 -0.000884075 0)
(505.203 -0.000638166 0)
(505.196 -0.000333534 0)
(505.189 -0.000109735 0)
(505.18 0.000182461 0)
(505.172 0.000473622 0)
(505.165 0.000651411 0)
(505.159 0.000760627 0)
(505.154 0.000837266 0)
(505.15 0.000839617 0)
(505.148 0.000485891 0)
(505.147 -0.000195223 0)
(505.144 -0.000496601 0)
(505.141 -0.000660268 0)
(505.138 -0.000875557 0)
(505.134 -0.00093513 0)
(505.13 -0.000564872 0)
(505.125 -3.59099e-05 0)
(505.12 0.000191752 0)
(505.115 0.000550068 0)
(505.104 0.000621135 0)
(500 -4.65341e-14 0)
(500 -2.14055e-14 0)
(500 5.18353e-14 0)
(500 9.95785e-14 0)
(500 1.49715e-13 0)
(500 1.64679e-13 0)
(500 1.80609e-13 0)
(500 1.47951e-13 0)
(500 2.27961e-13 0)
(500 3.10633e-13 0)
(500 4.52567e-13 0)
(500 5.00034e-13 0)
(500 3.88235e-13 0)
(500 4.70166e-13 0)
(500 4.27206e-13 0)
(500 3.05434e-13 0)
(500 1.38423e-13 0)
(500 -1.5244e-14 0)
(500 -9.45895e-16 0)
(500 -5.85659e-14 0)
(500 -1.20854e-13 0)
(500 -7.6992e-15 0)
(500 1.43124e-13 0)
(500 9.08187e-14 0)
(500 4.09603e-14 0)
(500 1.06896e-13 0)
(500 1.20917e-13 0)
(500 6.63512e-14 0)
(500 9.31083e-14 0)
(500 1.30653e-13 0)
(500 3.36384e-13 0)
(500 4.14281e-13 0)
(500 6.94594e-13 0)
(500 -2.57333e-13 0)
(500 3.57056e-12 0)
(500 -1.01517e-11 0)
(500 1.80845e-11 0)
(500 -3.70907e-12 0)
(500 3.88345e-11 0)
(500 -1.05546e-09 0)
(500 7.66171e-09 0)
(500 -2.64621e-08 0)
(500 3.11988e-08 0)
(500 2.12232e-07 0)
(500 -1.44739e-06 0)
(499.999 4.85697e-06 0)
(499.997 -9.37489e-06 0)
(499.992 4.3075e-06 0)
(499.98 3.37895e-05 0)
(499.953 -0.00010594 0)
(499.896 9.1385e-05 0)
(499.788 0.000288169 0)
(499.61 -0.000971665 0)
(499.394 0.000857467 0)
(499.264 0.000520994 0)
(499.249 -0.000237673 0)
(499.261 -0.000261327 0)
(499.317 -0.000392224 0)
(499.449 -0.000213282 0)
(499.676 0.00102865 0)
(499.997 -0.00115035 0)
(500.39 -0.0020504 0)
(500.827 0.00481315 0)
(501.287 0.00286471 0)
(501.75 -0.00820673 0)
(502.198 -0.00372808 0)
(502.621 0.0103403 0)
(503.02 0.00457904 0)
(503.386 -0.0107719 0)
(503.708 -0.00692533 0)
(503.982 0.00970943 0)
(504.215 0.00874471 0)
(504.411 -0.00370695 0)
(504.564 -0.00927592 0)
(504.688 -0.000963088 0)
(504.788 0.00637481 0)
(504.876 0.00378159 0)
(504.953 -0.00225592 0)
(505.019 -0.0048789 0)
(505.079 -0.000752926 0)
(505.133 0.00399895 0)
(505.184 0.00295316 0)
(505.233 -0.000899705 0)
(505.275 -0.00297657 0)
(505.304 -0.0015256 0)
(505.314 0.000977872 0)
(505.314 0.0014737 0)
(505.314 0.00106895 0)
(505.313 -0.000224679 0)
(505.31 -0.000884787 0)
(505.304 -0.000636605 0)
(505.293 3.51534e-05 0)
(505.277 0.000748652 0)
(505.257 0.00062831 0)
(505.235 -0.000463915 0)
(505.213 -0.000676972 0)
(505.193 0.000315107 0)
(505.177 0.000733021 0)
(505.164 -0.000127905 0)
(505.154 -0.000764264 0)
(505.146 -0.00047575 0)
(505.139 0.000196057 0)
(505.133 0.000634306 0)
(505.128 0.000545842 0)
(505.124 4.5503e-05 0)
(505.121 -0.000296252 0)
(505.118 -0.000316792 0)
(505.115 -0.000188207 0)
(505.113 -8.12104e-05 0)
(505.111 -0.000112733 0)
(505.11 -0.000113515 0)
(505.109 -4.35266e-05 0)
(505.11 9.61688e-05 0)
(505.11 0.000179268 0)
(505.111 0.000118013 0)
(505.113 8.75857e-05 0)
(505.117 2.72467e-05 0)
(505.122 -8.49262e-05 0)
(505.129 -0.000151888 0)
(505.137 -0.00012941 0)
(505.146 -0.000117686 0)
(505.155 -0.000137198 0)
(505.165 -5.08255e-05 0)
(505.174 8.432e-05 0)
(505.182 0.000147551 0)
(505.19 0.000142321 0)
(505.196 0.000106698 0)
(505.201 3.70972e-05 0)
(505.202 -3.1902e-05 0)
(505.203 -5.85415e-05 0)
(505.203 -6.63073e-05 0)
(505.203 -2.7845e-05 0)
(505.203 3.6406e-05 0)
(505.201 7.17005e-05 0)
(505.198 7.35089e-05 0)
(505.194 6.44927e-05 0)
(505.187 1.6546e-05 0)
(505.18 -9.75905e-05 0)
(505.173 -0.000193761 0)
(505.167 -0.000124983 0)
(505.162 2.08962e-05 0)
(505.157 0.000121643 0)
(505.154 0.00019759 0)
(505.152 0.000237613 0)
(505.15 3.2683e-05 0)
(505.148 -0.000166076 0)
(505.146 -0.000228463 0)
(505.144 -0.000284499 0)
(505.141 -0.00025746 0)
(505.138 -3.8342e-06 0)
(505.135 0.000177678 0)
(505.132 0.000265291 0)
(505.127 0.000376324 0)
(505.122 0.000411558 0)
(505.117 4.16067e-05 0)
(505.114 -0.000225118 0)
(505.113 -0.000243254 0)
(505.113 -0.000227906 0)
(505.114 -0.000145495 0)
(505.117 -5.91349e-06 0)
(505.121 9.87299e-05 0)
(505.129 0.000171748 0)
(505.138 0.000164045 0)
(505.149 3.83564e-05 0)
(505.159 -9.96289e-05 0)
(505.167 -0.000286325 0)
(505.173 -0.000415252 0)
(505.177 -0.000405647 0)
(505.18 -0.000124023 0)
(505.183 0.000221862 0)
(505.187 0.000349008 0)
(505.192 0.000367728 0)
(505.197 0.000282575 0)
(505.2 0.000122144 0)
(505.201 -6.46658e-05 0)
(505.201 -0.000203803 0)
(505.201 -0.000280875 0)
(505.2 -0.000283031 0)
(505.199 -0.00016321 0)
(505.197 6.87402e-05 0)
(505.193 0.00030714 0)
(505.189 0.00045736 0)
(505.183 0.000362815 0)
(505.176 0.000104666 0)
(505.17 -0.00016885 0)
(505.164 -0.000379809 0)
(505.159 -0.000462842 0)
(505.155 -0.000427224 0)
(505.152 -0.00026683 0)
(505.15 -3.23965e-05 0)
(505.148 0.000227357 0)
(505.147 0.000362449 0)
(505.146 0.000279471 0)
(505.145 0.000164961 0)
(505.143 2.27308e-05 0)
(505.142 -9.73248e-05 0)
(505.14 -7.65453e-05 0)
(505.138 2.37295e-05 0)
(505.135 0.000111633 0)
(505.132 0.00023857 0)
(505.127 0.000315058 0)
(505.122 0.000148372 0)
(505.115 -2.07838e-05 0)
(505.11 -8.02739e-05 0)
(505.109 -0.000247202 0)
(505.109 -0.000377404 0)
(505.109 -0.000424988 0)
(505.112 -0.000389467 0)
(505.117 -0.000212768 0)
(505.126 -1.7374e-05 0)
(505.137 0.000143584 0)
(505.15 0.000376259 0)
(505.162 0.000588127 0)
(505.171 0.000682089 0)
(505.176 0.000329378 0)
(505.18 -5.72072e-05 0)
(505.183 -0.000357576 0)
(505.185 -0.00054837 0)
(505.188 -0.000568814 0)
(505.191 -0.000419607 0)
(505.194 -7.31829e-05 0)
(505.198 0.00031437 0)
(505.202 0.000487773 0)
(505.205 0.000450891 0)
(505.205 0.000170282 0)
(505.205 -0.00022578 0)
(505.205 -0.000416135 0)
(505.204 -0.000436158 0)
(505.201 -0.000151924 0)
(505.197 0.000218322 0)
(505.192 0.000447684 0)
(505.185 0.000711071 0)
(505.178 0.000793528 0)
(505.171 0.000541773 0)
(505.165 3.33917e-05 0)
(505.159 -0.000575923 0)
(505.155 -0.00093412 0)
(505.152 -0.00099763 0)
(505.15 -0.000773163 0)
(505.148 -0.000268633 0)
(505.146 0.000202838 0)
(505.145 0.000651031 0)
(505.145 0.00085771 0)
(505.144 0.000685771 0)
(505.142 0.000433016 0)
(505.14 0.000126531 0)
(505.138 -0.000202801 0)
(505.134 -0.000415614 0)
(505.13 -0.000429138 0)
(505.125 -0.000416101 0)
(505.118 -0.000256511 0)
(505.109 -3.60029e-05 0)
(505.102 0.000203884 0)
(505.099 0.000410366 0)
(505.098 0.000264186 0)
(505.099 0.000126234 0)
(505.101 -0.000149324 0)
(505.105 -0.000302426 0)
(505.113 -0.000332221 0)
(505.124 -0.000276575 0)
(505.138 -0.000146582 0)
(505.152 0.000204561 0)
(505.165 0.000605545 0)
(505.173 0.000488619 0)
(505.178 -5.54543e-05 0)
(505.182 -0.000250944 0)
(505.185 -0.000327866 0)
(505.189 -0.000384132 0)
(505.193 -0.000302094 0)
(505.197 -3.39595e-05 0)
(505.202 0.000148041 0)
(505.207 0.000399974 0)
(505.212 0.000682271 0)
(505.214 0.000696751 0)
(505.214 0.000292579 0)
(505.213 -4.37288e-05 0)
(505.213 -0.000240538 0)
(505.212 -0.000545333 0)
(505.21 -0.000782248 0)
(505.208 -0.000847593 0)
(505.203 -0.000692329 0)
(505.197 -0.000442826 0)
(505.189 -0.00025284 0)
(505.181 2.13331e-05 0)
(505.172 0.000451964 0)
(505.165 0.000729417 0)
(505.159 0.000838204 0)
(505.154 0.000879604 0)
(505.15 0.000885389 0)
(505.147 0.000656437 0)
(505.146 -8.97083e-05 0)
(505.144 -0.000619131 0)
(505.141 -0.000730082 0)
(505.138 -0.00086633 0)
(505.134 -0.000927067 0)
(505.13 -0.000693048 0)
(505.126 -0.000128894 0)
(505.121 0.000136745 0)
(505.116 0.000471839 0)
(505.104 0.000617867 0)
(500 -1.31288e-13 0)
(500 -1.80766e-13 0)
(500 -4.83756e-14 0)
(500 1.51462e-13 0)
(500 2.59438e-13 0)
(500 2.39966e-13 0)
(500 2.56246e-13 0)
(500 3.77441e-13 0)
(500 3.95527e-13 0)
(500 4.44093e-13 0)
(500 4.73143e-13 0)
(500 5.174e-13 0)
(500 4.61717e-13 0)
(500 5.13762e-13 0)
(500 4.42267e-13 0)
(500 2.75697e-13 0)
(500 2.55455e-13 0)
(500 1.31415e-13 0)
(500 4.77371e-14 0)
(500 -1.6597e-14 0)
(500 5.55828e-14 0)
(500 3.10507e-13 0)
(500 1.19865e-13 0)
(500 1.26621e-13 0)
(500 1.16436e-13 0)
(500 4.79068e-14 0)
(500 5.6285e-14 0)
(500 1.29974e-14 0)
(500 1.49467e-13 0)
(500 2.18795e-13 0)
(500 3.96272e-13 0)
(500 6.82146e-13 0)
(500 8.34528e-13 0)
(500 -2.32368e-13 0)
(500 4.28166e-12 0)
(500 -1.25881e-11 0)
(500 2.6599e-11 0)
(500 -2.37527e-11 0)