/*--------------------------------*- C++ -*----------------------------------*\
| =========                 |                                                 |
| \\      /  F ield         | OpenFOAM: The Open Source CFD Toolbox           |
|  \\    /   O peration     | Version:  2306                                  |
|   \\  /    A nd           | Website:  www.openfoam.com                      |
|    \\/     M anipulation  |                                                 |
\*---------------------------------------------------------------------------*/
FoamFile
{
    version     2.0;
    format      ascii;
    arch        "LSB;label=32;scalar=64";
    class       volVectorField;
    location    "0.1";
    object      U;
}
// * * * * * * * * * * * * * * * * * * * * * * * * * * * * * * * * * * * * * //

dimensions      [0 1 -1 0 0 0 0];

internalField   nonuniform List<vector> 
6000
(
(-2453.19 -0.306582 0)
(-729.698 -0.253793 0)
(346.532 -0.294645 0)
(339.985 0.0656645 0)
(330.843 0.431288 0)
(324.317 0.472093 0)
(317.294 0.918076 0)
(291.192 1.11908 0)
(238.963 1.30993 0)
(17.0284 0.978109 0)
(-210.949 0.820699 0)
(-227.997 0.696596 0)
(-210.422 0.659416 0)
(-169.958 0.774197 0)
(-117.28 0.843024 0)
(-62.7492 0.92822 0)
(-9.28246 0.673715 0)
(43.3799 0.386545 0)
(96.8196 0.261092 0)
(153.773 0.337487 0)
(216.821 0.527714 0)
(282.659 0.892733 0)
(334.143 1.05943 0)
(358.532 1.15739 0)
(367.902 1.14825 0)
(363.797 1.12506 0)
(306.515 0.73837 0)
(59.7989 0.231815 0)
(-119.228 0.0674166 0)
(-122.497 -0.0774646 0)
(-101.047 -0.159073 0)
(-63.1131 -0.166267 0)
(-28.0237 -0.132383 0)
(-0.0576941 -0.148863 0)
(24.3922 -0.212955 0)
(48.1224 -0.301375 0)
(72.2943 -0.410084 0)
(97.1955 -0.499801 0)
(122.693 -0.575733 0)
(148.197 -0.562835 0)
(173.317 -0.364308 0)
(200.127 0.0919715 0)
(236.184 0.574729 0)
(290.365 0.92434 0)
(328.544 0.959907 0)
(331.144 0.820644 0)
(303.646 0.760069 0)
(152.192 0.527811 0)
(-20.7074 0.314074 0)
(-37.8835 0.34094 0)
(-28.6833 0.389516 0)
(-3.08505 0.462662 0)
(25.7377 0.539393 0)
(46.4266 0.618862 0)
(61.2746 0.653373 0)
(74.6879 0.655375 0)
(89.0882 0.683343 0)
(105.194 0.750685 0)
(122.445 0.857088 0)
(139.502 1.00101 0)
(155.194 1.16328 0)
(169.976 1.32092 0)
(186.932 1.41748 0)
(213.691 1.48609 0)
(258.472 1.51184 0)
(289.764 1.53695 0)
(291.777 1.55998 0)
(270.538 1.50156 0)
(160.232 1.08235 0)
(29.1702 0.777555 0)
(11.5524 0.798411 0)
(16.4994 0.863933 0)
(32.7929 0.924524 0)
(55.247 0.976115 0)
(71.7521 1.02873 0)
(81.7115 1.08974 0)
(89.7675 1.17045 0)
(98.8646 1.24403 0)
(110.245 1.28469 0)
(123.391 1.29764 0)
(136.354 1.29485 0)
(147.546 1.28469 0)
(157.512 1.27139 0)
(168.918 1.2557 0)
(187.54 1.22668 0)
(220.792 1.12912 0)
(249.612 1.00641 0)
(253.85 0.883964 0)
(244.277 0.566387 0)
(184.831 0.0719792 0)
(70.1389 -0.370395 0)
(33.6557 -0.588528 0)
(34.1977 -0.706458 0)
(42.2312 -0.802086 0)
(60.0401 -0.889415 0)
(78.463 -0.966858 0)
(89.5162 -1.02155 0)
(95.8869 -1.03305 0)
(101.719 -0.994569 0)
(109.335 -0.948611 0)
(119.665 -0.90056 0)
(131.562 -0.839138 0)
(142.397 -0.791953 0)
(151.045 -0.735404 0)
(159.099 -0.683953 0)
(170.016 -0.646427 0)
(189.531 -0.617669 0)
(217.51 -0.660819 0)
(230.185 -0.809692 0)
(230.162 -0.971527 0)
(211.42 -1.18396 0)
(138.981 -1.38167 0)
(59.0266 -1.54954 0)
(44.3189 -1.7412 0)
(47.7953 -1.90715 0)
(58.5133 -2.0876 0)
(77.2602 -2.29992 0)
(93.4743 -2.52867 0)
(101.203 -2.71491 0)
(105.661 -2.83737 0)
(110.152 -2.95088 0)
(115.37 -3.03797 0)
(122.3 -3.09391 0)
(130.97 -3.0564 0)
(139.743 -2.92981 0)
(146.227 -2.65244 0)
(151.952 -2.34547 0)
(159.144 -2.02015 0)
(172.243 -1.66733 0)
(192.007 -1.26254 0)
(207.076 -0.803294 0)
(207.226 -0.374607 0)
(191.042 -0.00799024 0)
(138.292 0.165069 0)
(69.366 0.270669 0)
(49.9612 0.366055 0)
(48.9103 0.432738 0)
(59.4936 0.491304 0)
(78.7044 0.482102 0)
(97.5337 0.37079 0)
(108.62 0.0855107 0)
(112.855 -0.307198 0)
(115.167 -0.574488 0)
(118.93 -0.783648 0)
(125.858 -0.954354 0)
(135.458 -1.09574 0)
(145.053 -1.24933 0)
(152.637 -1.39511 0)
(160.046 -1.47805 0)
(172.562 -1.43923 0)
(191.231 -1.19928 0)
(203.155 -0.663061 0)
(196.076 -0.119291 0)
(168.017 0.395371 0)
(104.77 0.711907 0)
(67.6088 0.985519 0)
(60.5394 1.16841 0)
(67.4543 1.32102 0)
(86.5341 1.45333 0)
(109.011 1.48239 0)
(122.648 1.37092 0)
(125.942 1.11738 0)
(125.816 0.792424 0)
(127.102 0.418463 0)
(131.672 -0.00746703 0)
(139.146 -0.31658 0)
(148.551 -0.455978 0)
(161.487 -0.583966 0)
(180.985 -0.616986 0)
(194.883 -0.433631 0)
(190.526 -0.293604 0)
(161.051 -0.329374 0)
(111.678 -0.50388 0)
(83.2524 -0.931426 0)
(80.4005 -1.18202 0)
(96.5426 -1.4704 0)
(120.85 -1.84892 0)
(136.108 -2.18315 0)
(138.165 -2.06205 0)
(135.682 -1.72862 0)
(134.647 -1.29308 0)
(138.742 -0.579288 0)
(151.869 0.257866 0)
(173.328 0.77638 0)
(188.374 1.04878 0)
(183.903 1.32461 0)
(160.445 1.61208 0)
(129.089 1.80856 0)
(113.327 1.92674 0)
(114.407 1.9465 0)
(122.867 1.90398 0)
(131.551 1.66303 0)
(145.063 1.28663 0)
(149.033 0.741941 0)
(138.095 0.255087 0)
(123.419 -0.329758 0)
(117.523 -0.706314 0)
(122.61 -0.925839 0)
(135.615 -1.02912 0)
(143.462 -0.869827 0)
(141.7 -0.619192 0)
(135.344 -0.346193 0)
(129.563 -0.184606 0)
(128.859 -0.229523 0)
(132.667 -0.280356 0)
(138.728 -0.27815 0)
(140.489 -0.198674 0)
(138.745 -0.0580502 0)
(134.89 0.0891343 0)
(132.997 0.132999 0)
(133.417 0.11175 0)
(135.845 0.0321498 0)
(138.003 -0.0327407 0)
(137.982 -0.0403773 0)
(136.788 -0.0131534 0)
(134.415 0.0533285 0)
(133.535 0.0836383 0)
(133.783 0.0877445 0)
(134.752 0.0781047 0)
(135.728 0.0580408 0)
(135.847 0.04743 0)
(135.587 0.0447528 0)
(135.233 0.0448865 0)
(135.133 0.0452523 0)
(135.32 0.0450668 0)
(135.732 0.0414945 0)
(135.92 0.037253 0)
(135.829 0.0355039 0)
(135.531 0.0359977 0)
(135.129 0.0383785 0)
(134.975 0.0380631 0)
(134.95 0.0363343 0)
(134.953 0.0310498 0)
(134.925 0.0240813 0)
(134.83 0.0164584 0)
(134.681 0.00706927 0)
(134.548 -0.00165954 0)
(134.478 -0.00618404 0)
(134.435 -0.00804153 0)
(134.39 -0.00777252 0)
(134.333 -0.00504022 0)
(134.253 -0.000632235 0)
(134.177 0.00652829 0)
(134.146 0.0109631 0)
(134.146 0.0132206 0)
(134.146 0.0167849 0)
(134.128 0.0197342 0)
(134.063 0.022678 0)
(133.95 0.0263081 0)
(133.878 0.0310025 0)
(133.874 0.0348693 0)
(133.894 0.0396333 0)
(133.952 0.0442268 0)
(134.033 0.0471442 0)
(134.08 0.0483695 0)
(134.069 0.0483296 0)
(134.035 0.0467069 0)
(133.982 0.0434921 0)
(133.909 0.0364817 0)
(133.82 0.0261549 0)
(133.711 0.0142091 0)
(133.6 0.00325212 0)
(133.53 -0.0036318 0)
(133.509 -0.0055684 0)
(133.508 -0.00557811 0)
(133.516 -0.0037027 0)
(133.53 -0.000688843 0)
(133.551 0.00302278 0)
(133.59 0.00604951 0)
(133.646 0.00795392 0)
(133.698 0.00908978 0)
(133.714 0.00948302 0)
(133.695 0.00878329 0)
(133.653 0.00531547 0)
(133.58 -0.0030743 0)
(133.47 -0.0129308 0)
(133.311 -0.0213513 0)
(133.123 -0.0268186 0)
(132.962 -0.0294676 0)
(132.866 -0.0307084 0)
(132.828 -0.0309512 0)
(132.822 -0.0304718 0)
(132.827 -0.0298465 0)
(132.842 -0.0292368 0)
(132.873 -0.0292434 0)
(132.923 -0.0294595 0)
(132.986 -0.0297859 0)
(133.028 -0.0303165 0)
(133.038 -0.0306737 0)
(133.038 -0.029972 0)
(133.023 -0.0275642 0)
(132.966 -0.0234975 0)
(132.845 -0.0179044 0)
(132.671 -0.0111227 0)
(132.516 -0.00423306 0)
(132.449 0.00326731 0)
(132.44 0.0100676 0)
(132.445 0.0153034 0)
(132.478 0.0203158 0)
(132.634 0.0220228 0)
(-2453.08 -0.437498 0)
(-728.887 0.295666 0)
(347.022 -1.85858 0)
(340.824 -1.40686 0)
(332.126 0.356948 0)
(325.325 0.459186 0)
(318.728 2.76134 0)
(292.776 3.77809 0)
(240.412 5.03189 0)
(16.3652 5.29087 0)
(-211.414 4.43072 0)
(-228.021 4.33929 0)
(-210.326 4.34142 0)
(-169.8 4.47454 0)
(-117.23 4.35948 0)
(-62.7624 4.1797 0)
(-9.33939 3.40033 0)
(43.2207 2.54912 0)
(96.6834 2.01723 0)
(153.879 1.71683 0)
(217.227 1.75813 0)
(283.216 2.46048 0)
(334.738 3.68918 0)
(358.807 4.34869 0)
(367.939 4.36013 0)
(363.56 4.28737 0)
(305.175 4.01351 0)
(57.3906 2.52713 0)
(-119.78 1.16135 0)
(-122.84 0.872568 0)
(-101.424 0.718231 0)
(-63.6235 0.566345 0)
(-28.5924 0.325688 0)
(-0.627209 -0.0737183 0)
(23.8013 -0.574107 0)
(47.5129 -1.10502 0)
(71.6699 -1.62594 0)
(96.5867 -2.08645 0)
(122.148 -2.50589 0)
(147.839 -2.79536 0)
(173.32 -2.82099 0)
(200.62 -2.52209 0)
(237.245 -1.7968 0)
(291.739 -0.529516 0)
(329.699 0.879003 0)
(332.474 1.83377 0)
(304.524 2.55274 0)
(151.14 2.06129 0)
(-21.2091 0.872315 0)
(-37.8087 0.861425 0)
(-28.4346 1.06048 0)
(-2.78454 1.37053 0)
(25.9089 1.71329 0)
(46.431 2.03109 0)
(61.1585 2.26748 0)
(74.4879 2.46818 0)
(88.8118 2.69636 0)
(104.862 2.91798 0)
(122.128 3.12245 0)
(139.304 3.30902 0)
(155.171 3.47632 0)
(170.074 3.56235 0)
(187.078 3.63975 0)
(213.862 3.74231 0)
(258.59 3.97137 0)
(289.614 4.07753 0)
(291.532 3.88505 0)
(269.857 3.31495 0)
(158.516 2.28622 0)
(28.3142 1.12304 0)
(11.2866 0.787803 0)
(16.2749 0.595103 0)
(32.6971 0.381037 0)
(55.2571 0.181768 0)
(71.8659 0.0241451 0)
(81.9217 -0.044265 0)
(90.0744 -0.0285251 0)
(99.2834 0.0483815 0)
(110.766 0.175091 0)
(123.964 0.347073 0)
(136.912 0.548224 0)
(148.054 0.736948 0)
(157.963 0.899736 0)
(169.336 1.07812 0)
(187.91 1.29604 0)
(221.101 1.6276 0)
(249.398 1.72053 0)
(253.535 1.37213 0)
(243.714 0.860019 0)
(183.706 0.0374488 0)
(69.4057 -1.12729 0)
(33.4769 -1.72004 0)
(34.1528 -1.94997 0)
(42.311 -2.18768 0)
(60.2483 -2.37885 0)
(78.814 -2.52489 0)
(90.0018 -2.54947 0)
(96.4912 -2.39849 0)
(102.412 -2.12141 0)
(110.056 -1.83113 0)
(120.341 -1.54106 0)
(132.167 -1.19561 0)
(142.93 -0.837777 0)
(151.464 -0.48603 0)
(159.444 -0.160845 0)
(170.333 0.115266 0)
(189.917 0.45932 0)
(217.823 0.776695 0)
(230.313 0.924516 0)
(230.239 0.958545 0)
(211.285 0.877512 0)
(138.506 0.507031 0)
(58.5432 0.0172843 0)
(43.8221 -0.232708 0)
(47.2263 -0.416524 0)
(57.7307 -0.653348 0)
(76.095 -1.09802 0)
(92.0361 -1.77812 0)
(99.5246 -2.60169 0)
(103.863 -3.42833 0)
(108.321 -4.30261 0)
(113.576 -5.24915 0)
(120.745 -6.18121 0)
(129.87 -6.86241 0)
(139.134 -7.2338 0)
(146.111 -7.14633 0)
(151.985 -6.77762 0)
(159.393 -6.25215 0)
(172.752 -5.56258 0)
(192.862 -4.74098 0)
(208.211 -3.8353 0)
(208.543 -2.9692 0)
(192.552 -2.01274 0)
(139.621 -0.998153 0)
(70.1164 -0.183331 0)
(50.5994 0.353662 0)
(49.5484 0.781538 0)
(60.0798 1.20686 0)
(79.1584 1.55626 0)
(97.652 1.75484 0)
(108.266 1.64501 0)
(112.158 1.14797 0)
(114.341 0.549454 0)
(118.073 -0.0891874 0)
(124.914 -0.74212 0)
(134.416 -1.39834 0)
(143.935 -2.13576 0)
(151.495 -2.94071 0)
(159.032 -3.71717 0)
(171.995 -4.27165 0)
(191.531 -4.41428 0)
(204.223 -3.79711 0)
(197.438 -2.98555 0)
(169.692 -1.89099 0)
(106.367 -0.529549 0)
(68.8373 0.583375 0)
(61.8438 1.48283 0)
(68.7175 2.31589 0)
(87.7083 3.20444 0)
(109.963 3.93186 0)
(123.081 4.31691 0)
(125.817 4.02801 0)
(125.293 3.49739 0)
(126.301 2.74523 0)
(130.684 1.73395 0)
(138.037 0.546524 0)
(147.533 -0.640662 0)
(160.859 -1.58095 0)
(181.148 -2.14903 0)
(196.03 -2.09751 0)
(192.23 -1.58703 0)
(162.838 -0.8899 0)
(112.203 -0.382712 0)
(83.057 -0.58913 0)
(79.255 -1.41512 0)
(94.8376 -2.68092 0)
(118.936 -4.58748 0)
(134.826 -6.06719 0)
(138.017 -6.58366 0)
(136.292 -6.01788 0)
(135.836 -4.86384 0)
(140.341 -2.85596 0)
(153.469 -0.458402 0)
(174.273 1.93904 0)
(188.254 4.0046 0)
(182.681 5.04946 0)
(158.546 5.47962 0)
(127.22 5.31472 0)
(112.727 4.93889 0)
(114.901 4.83681 0)
(123.852 4.58854 0)
(132.67 4.22785 0)
(145.591 3.83995 0)
(148.422 2.24173 0)
(137.476 0.781675 0)
(123.211 -1.07264 0)
(117.577 -2.27575 0)
(122.776 -3.0208 0)
(136.364 -3.56676 0)
(145.007 -2.86221 0)
(143.218 -2.01726 0)
(136.382 -0.725327 0)
(129.617 0.0898894 0)
(128.486 0.246443 0)
(131.786 -0.00118559 0)
(138.019 -0.609321 0)
(140.438 -0.764572 0)
(138.991 -0.607625 0)
(135.421 -0.0729278 0)
(133.209 0.408615 0)
(133.384 0.535818 0)
(135.446 0.418074 0)
(137.661 0.0564145 0)
(137.776 -0.134586 0)
(136.792 -0.215926 0)
(134.62 -0.0906207 0)
(133.677 0.108168 0)
(133.857 0.207494 0)
(134.704 0.239125 0)
(135.64 0.164664 0)
(135.801 0.103395 0)
(135.585 0.0701061 0)
(135.268 0.0765409 0)
(135.162 0.103898 0)
(135.329 0.125006 0)
(135.716 0.12752 0)
(135.903 0.115204 0)
(135.819 0.105796 0)
(135.537 0.103333 0)
(135.137 0.11409 0)
(134.969 0.117792 0)
(134.936 0.11256 0)
(134.929 0.0985086 0)
(134.896 0.0788614 0)
(134.797 0.0512373 0)
(134.653 0.0197897 0)
(134.529 -0.00535466 0)
(134.468 -0.0188945 0)
(134.432 -0.0256794 0)
(134.392 -0.0263029 0)
(134.34 -0.0227752 0)
(134.268 -0.0121471 0)
(134.196 0.00712764 0)
(134.164 0.0288956 0)
(134.164 0.0422952 0)
(134.161 0.0537659 0)
(134.139 0.0592701 0)
(134.073 0.0615418 0)
(133.963 0.063405 0)
(133.892 0.0675807 0)
(133.887 0.07267 0)
(133.907 0.0802856 0)
(133.969 0.0906874 0)
(134.051 0.10377 0)
(134.094 0.116344 0)
(134.083 0.123468 0)
(134.049 0.131291 0)
(133.991 0.138968 0)
(133.91 0.137229 0)
(133.806 0.122201 0)
(133.683 0.0945806 0)
(133.569 0.0623846 0)
(133.511 0.0372403 0)
(133.494 0.0234783 0)
(133.497 0.0127621 0)
(133.509 0.00358041 0)
(133.528 -0.000256733 0)
(133.556 0.000705612 0)
(133.6 0.006394 0)
(133.659 0.01504 0)
(133.708 0.0231019 0)
(133.72 0.0272462 0)
(133.701 0.029455 0)
(133.654 0.0304771 0)
(133.576 0.0279656 0)
(133.455 0.018774 0)
(133.287 0.000984186 0)
(133.096 -0.022233 0)
(132.937 -0.0457366 0)
(132.85 -0.063974 0)
(132.821 -0.0745747 0)
(132.817 -0.0784322 0)
(132.825 -0.0826318 0)
(132.842 -0.0854332 0)
(132.875 -0.0870329 0)
(132.925 -0.0870387 0)
(132.986 -0.0867978 0)
(133.024 -0.0880675 0)
(133.032 -0.0901218 0)
(133.031 -0.0913753 0)
(133.014 -0.0915464 0)
(132.959 -0.0900377 0)
(132.844 -0.0852994 0)
(132.678 -0.0742671 0)
(132.528 -0.0596113 0)
(132.461 -0.0451129 0)
(132.453 -0.0313251 0)
(132.462 -0.0182225 0)
(132.499 0.00288349 0)
(132.652 0.0189869 0)
(-2453 -0.739418 0)
(-728.16 -0.940018 0)
(348.135 -1.69021 0)
(341.624 -1.57295 0)
(332.585 1.32322 0)
(325.632 1.87528 0)
(319.472 4.2111 0)
(294.145 5.05467 0)
(241.912 6.37572 0)
(15.4976 6.74987 0)
(-211.969 6.05653 0)
(-227.618 6.03401 0)
(-209.685 5.85658 0)
(-168.917 5.93582 0)
(-116.362 5.68123 0)
(-62.015 5.31966 0)
(-8.71446 4.35336 0)
(43.7632 3.33101 0)
(97.2252 2.58947 0)
(154.529 1.96197 0)
(218.329 1.79016 0)
(284.867 2.98962 0)
(335.632 4.87073 0)
(358.055 5.50131 0)
(366.439 5.37355 0)
(361.653 5.32635 0)
(302.095 4.85782 0)
(52.9835 2.83517 0)
(-121.087 1.21202 0)
(-123.607 0.905966 0)
(-102.108 0.717761 0)
(-64.386 0.492657 0)
(-29.3369 0.102156 0)
(-1.28276 -0.399395 0)
(23.2189 -0.922613 0)
(46.9444 -1.53597 0)
(71.1098 -2.06312 0)
(96.1028 -2.52943 0)
(121.825 -2.9612 0)
(147.645 -3.28571 0)
(173.262 -3.45046 0)
(200.956 -3.25895 0)
(238.381 -2.36648 0)
(293.46 -0.581705 0)
(330.839 1.48486 0)
(333.498 2.80405 0)
(304.521 3.71517 0)
(147.97 2.73601 0)
(-22.2979 0.8428 0)
(-37.7819 0.840956 0)
(-28.1588 1.0483 0)
(-2.43834 1.462 0)
(26.0028 1.95459 0)
(46.2779 2.41191 0)
(60.85 2.8289 0)
(74.1037 3.26104 0)
(88.4278 3.65781 0)
(104.563 4.01691 0)
(121.918 4.38533 0)
(139.092 4.81931 0)
(154.849 5.26374 0)
(169.618 5.59263 0)
(186.644 5.76445 0)
(213.786 5.91904 0)
(258.747 6.28948 0)
(288.923 6.40559 0)
(290.562 6.11088 0)
(268.137 5.4238 0)
(155.566 3.74999 0)
(27.169 1.87859 0)
(11.0313 1.30837 0)
(15.886 0.976976 0)
(32.385 0.630791 0)
(55.0674 0.32161 0)
(71.8273 0.105786 0)
(82.049 0.0286727 0)
(90.3734 0.0920671 0)
(99.7605 0.257604 0)
(111.38 0.499638 0)
(124.628 0.813354 0)
(137.521 1.17462 0)
(148.537 1.52196 0)
(158.331 1.82211 0)
(169.662 2.07596 0)
(188.349 2.33445 0)
(221.696 2.7184 0)
(249.172 2.85278 0)
(253.08 2.58051 0)
(242.73 2.16237 0)
(181.27 1.02927 0)
(67.4323 -0.93014 0)
(32.8922 -1.80331 0)
(33.8668 -2.15651 0)
(42.298 -2.57769 0)
(60.4396 -2.88013 0)
(79.1269 -3.127 0)
(90.3874 -3.24199 0)
(96.946 -3.14922 0)
(102.916 -3.01056 0)
(110.561 -2.81991 0)
(120.788 -2.53946 0)
(132.541 -2.12119 0)
(143.267 -1.61688 0)
(151.826 -1.0647 0)
(159.878 -0.515628 0)
(170.927 0.0294478 0)
(190.731 0.637498 0)
(218.454 1.22392 0)
(230.543 1.48064 0)
(230.4 1.60812 0)
(211.025 1.45723 0)
(137.469 0.65274 0)
(58.0484 -0.350844 0)
(43.6306 -0.837622 0)
(47.0717 -1.21277 0)
(57.4805 -1.74461 0)
(75.5534 -2.50073 0)
(91.3844 -3.48978 0)
(98.8474 -4.52224 0)
(103.035 -5.4128 0)
(107.244 -6.35676 0)
(112.307 -7.31485 0)
(119.583 -8.23461 0)
(129.197 -8.96204 0)
(139.093 -9.33846 0)
(146.855 -9.19586 0)
(153.091 -8.73217 0)
(160.954 -8.06467 0)
(174.556 -7.23302 0)
(194.834 -6.27105 0)
(210.135 -5.23633 0)
(210.577 -4.17987 0)
(194.515 -2.9117 0)
(141.318 -1.77558 0)
(71.2612 -0.938304 0)
(51.7052 -0.234311 0)
(50.6639 0.411923 0)
(61.0741 1.11533 0)
(79.9135 1.67454 0)
(97.9582 2.04417 0)
(107.924 2.03279 0)
(111.264 1.65141 0)
(113.146 1.10084 0)
(116.778 0.248014 0)
(123.746 -0.843166 0)
(133.429 -1.95316 0)
(143.032 -3.04983 0)
(150.646 -4.04543 0)
(158.324 -4.82952 0)
(171.617 -5.38747 0)
(192.203 -5.64241 0)
(206.123 -4.84239 0)
(199.674 -3.65403 0)
(172.043 -2.08655 0)
(108.581 -0.524304 0)
(70.5738 0.805486 0)
(63.5132 1.97563 0)
(70.3396 3.10204 0)
(89.178 4.37026 0)
(111.032 5.32609 0)
(123.309 5.68541 0)
(125.173 5.23246 0)
(124.265 4.5352 0)
(125.103 3.59447 0)
(129.365 2.43758 0)
(136.681 1.06381 0)
(146.319 -0.388796 0)
(160.052 -1.662 0)
(181.003 -2.64485 0)
(196.584 -3.30266 0)
(193.715 -3.35472 0)
(164.755 -2.68953 0)
(113.561 -1.75533 0)
(83.1525 -1.92069 0)
(78.2799 -3.04165 0)
(92.5639 -4.71847 0)
(115.679 -6.84759 0)
(131.834 -8.91181 0)
(136.225 -9.67934 0)
(135.609 -9.11215 0)
(136.075 -7.82764 0)
(141.485 -5.69761 0)
(155.219 -2.52201 0)
(175.757 1.7041 0)
(187.863 5.833 0)
(180.295 7.99728 0)
(154.693 8.93491 0)
(123.091 8.51525 0)
(110.034 8.09892 0)
(113.79 8.43042 0)
(124.182 7.84669 0)
(134.303 7.05752 0)
(146.921 5.87739 0)
(148.475 3.17369 0)
(137.409 1.19972 0)
(123.368 -1.26475 0)
(117.524 -2.91074 0)
(122.382 -4.06859 0)
(136.487 -5.17113 0)
(146.489 -5.02391 0)
(145.038 -3.85814 0)
(138.208 -2.07238 0)
(130.157 -0.468085 0)
(128.145 -0.090156 0)
(130.693 -0.126488 0)
(136.874 -0.647351 0)
(140.201 -0.826068 0)
(139.225 -0.644508 0)
(136.081 -0.080772 0)
(133.494 0.530474 0)
(133.352 0.706906 0)
(134.884 0.603787 0)
(137.038 0.175691 0)
(137.372 -0.103344 0)
(136.685 -0.233197 0)
(134.904 -0.10312 0)
(133.896 0.15519 0)
(133.978 0.282553 0)
(134.635 0.328039 0)
(135.478 0.237355 0)
(135.693 0.164268 0)
(135.523 0.133031 0)
(135.274 0.144051 0)
(135.184 0.174479 0)
(135.334 0.196136 0)
(135.684 0.191519 0)
(135.867 0.17176 0)
(135.791 0.159136 0)
(135.536 0.157389 0)
(135.153 0.175141 0)
(134.961 0.183864 0)
(134.909 0.17154 0)
(134.891 0.146501 0)
(134.845 0.114398 0)
(134.741 0.0774906 0)
(134.601 0.0410468 0)
(134.485 0.0111747 0)
(134.433 -0.0102539 0)
(134.413 -0.0287748 0)
(134.393 -0.0320603 0)
(134.353 -0.025294 0)
(134.295 -0.0110412 0)
(134.229 0.0162879 0)
(134.191 0.0506672 0)
(134.183 0.0773026 0)
(134.167 0.0957675 0)
(134.135 0.104485 0)
(134.064 0.105891 0)
(133.957 0.104974 0)
(133.895 0.109812 0)
(133.886 0.117064 0)
(133.909 0.127982 0)
(133.976 0.142783 0)
(134.062 0.159187 0)
(134.1 0.172213 0)
(134.089 0.178717 0)
(134.051 0.186992 0)
(133.986 0.194007 0)
(133.892 0.188659 0)
(133.766 0.167874 0)
(133.628 0.134267 0)
(133.521 0.096698 0)
(133.476 0.0672292 0)
(133.468 0.0477581 0)
(133.479 0.027711 0)
(133.502 0.0122164 0)
(133.532 0.00397987 0)
(133.57 0.00391275 0)
(133.621 0.0120948 0)
(133.68 0.0254046 0)
(133.722 0.0367774 0)
(133.724 0.0405744 0)
(133.701 0.041938 0)
(133.649 0.0418944 0)
(133.565 0.0376039 0)
(133.434 0.0251032 0)
(133.255 0.000751421 0)
(133.06 -0.0336646 0)
(132.912 -0.0676375 0)
(132.843 -0.0911666 0)
(132.822 -0.102355 0)
(132.823 -0.109713 0)
(132.835 -0.117886 0)
(132.857 -0.12287 0)
(132.895 -0.124755 0)
(132.948 -0.123983 0)
(133.007 -0.122425 0)
(133.042 -0.1233 0)
(133.051 -0.124893 0)
(133.049 -0.125256 0)
(133.035 -0.123308 0)
(132.984 -0.118981 0)
(132.877 -0.109839 0)
(132.718 -0.0940719 0)
(132.567 -0.0748515 0)
(132.495 -0.0526717 0)
(132.484 -0.0303149 0)
(132.493 -0.00855749 0)
(132.53 0.0218629 0)
(132.676 0.044367 0)
(-2452.77 -0.993666 0)
(-728.044 -2.61443 0)
(349.5 -0.29538 0)
(342.496 -0.373252 0)
(333.035 2.84796 0)
(326.133 4.15964 0)
(319.993 5.75349 0)
(295.213 6.23156 0)
(243.465 6.82879 0)
(15.1283 6.82006 0)
(-212.563 5.96783 0)
(-227.328 5.98113 0)
(-209.134 5.75163 0)
(-167.984 5.79686 0)
(-115.398 5.49373 0)
(-61.2012 5.17248 0)
(-8.05042 4.4616 0)
(44.423 3.60743 0)
(97.9466 2.89176 0)
(155.372 2.27707 0)
(219.662 2.30165 0)
(286.703 3.73157 0)
(336.296 5.56731 0)
(356.839 6.11727 0)
(364.322 5.69927 0)
(359.124 5.41304 0)
(298.118 4.58255 0)
(47.5589 2.20003 0)
(-122.614 0.508616 0)
(-124.431 0.182678 0)
(-102.726 -0.0572991 0)
(-65.0147 -0.353851 0)
(-29.9692 -0.579561 0)
(-1.82697 -1.06681 0)
(22.8003 -1.72069 0)
(46.6277 -2.24062 0)
(70.8458 -2.67018 0)
(95.8414 -3.00299 0)
(121.52 -3.26433 0)
(147.319 -3.43093 0)
(173.023 -3.4308 0)
(201.112 -3.00005 0)
(239.428 -1.8341 0)
(295.287 0.129928 0)
(331.732 2.23518 0)
(334.148 3.42677 0)
(303.735 4.14052 0)
(143.244 2.6477 0)
(-24.0776 0.33943 0)
(-38.0987 0.250297 0)
(-28.0524 0.461793 0)
(-2.08114 0.941909 0)
(26.2295 1.47498 0)
(46.2715 1.99211 0)
(60.6411 2.51782 0)
(73.7655 3.07837 0)
(88.0988 3.64006 0)
(104.276 4.19779 0)
(121.626 4.7858 0)
(138.708 5.49466 0)
(154.337 6.21353 0)
(169.05 6.84338 0)
(186.206 7.2389 0)
(213.784 7.64886 0)
(258.908 8.25017 0)
(288.087 8.47333 0)
(289.352 8.14545 0)
(265.929 7.25168 0)
(151.535 5.06635 0)
(25.3711 2.73073 0)
(10.242 1.93776 0)
(15.0446 1.46488 0)
(31.7464 0.984787 0)
(54.6692 0.547692 0)
(71.6497 0.208803 0)
(82.0889 0.0538743 0)
(90.6359 0.0603524 0)
(100.265 0.169839 0)
(112.127 0.386963 0)
(125.576 0.743315 0)
(138.57 1.23303 0)
(149.553 1.78326 0)
(159.23 2.2941 0)
(170.408 2.7369 0)
(189.007 3.16225 0)
(222.292 3.62395 0)
(248.658 3.76902 0)
(252.257 3.53561 0)
(241.52 3.11144 0)
(178.3 1.91159 0)
(65.1006 -0.142045 0)
(32.2596 -1.075 0)
(33.4656 -1.5392 0)
(42.1231 -1.95388 0)
(60.4509 -2.26555 0)
(79.2325 -2.56732 0)
(90.5862 -2.80747 0)
(97.2789 -2.88628 0)
(103.403 -2.86145 0)
(111.14 -2.76461 0)
(121.399 -2.56576 0)
(133.155 -2.23586 0)
(143.894 -1.82321 0)
(152.51 -1.37754 0)
(160.679 -0.889577 0)
(171.919 -0.359867 0)
(191.912 0.370428 0)
(219.433 1.39103 0)
(231.019 2.02519 0)
(230.68 2.39316 0)
(210.358 2.32928 0)
(134.948 1.16759 0)
(56.6106 -0.454824 0)
(42.9034 -1.13744 0)
(46.3622 -1.62956 0)
(56.5545 -2.23678 0)
(74.2329 -2.95508 0)
(89.9713 -3.82828 0)
(97.6359 -4.70324 0)
(101.789 -5.41461 0)
(105.848 -6.14515 0)
(110.915 -6.87193 0)
(118.46 -7.57489 0)
(128.541 -8.15934 0)
(139.067 -8.65699 0)
(147.51 -8.79746 0)
(154.023 -8.56647 0)
(162.218 -8.1393 0)
(176.026 -7.51771 0)
(196.63 -6.6562 0)
(211.982 -5.6193 0)
(212.63 -4.53716 0)
(196.642 -3.37021 0)
(143.107 -2.47425 0)
(72.4847 -1.87952 0)
(52.9924 -1.19863 0)
(52.0451 -0.496321 0)
(62.4167 0.370016 0)
(81.0209 1.16315 0)
(98.6766 1.69262 0)
(108.156 1.95446 0)
(111.019 1.76257 0)
(112.396 1.33361 0)
(115.573 0.703114 0)
(122.251 -0.180325 0)
(131.815 -1.32422 0)
(141.494 -2.64385 0)
(149.416 -3.86347 0)
(157.557 -4.7353 0)
(171.307 -5.34219 0)
(192.758 -5.67612 0)
(207.953 -5.03119 0)
(201.985 -3.76446 0)
(174.679 -1.98358 0)
(111.029 -0.280412 0)
(72.5083 0.994315 0)
(65.5317 1.99727 0)
(72.4991 3.00661 0)
(91.3346 4.36631 0)
(112.429 5.43286 0)
(123.479 5.673 0)
(124.747 5.30948 0)
(123.719 4.70483 0)
(124.485 3.80937 0)
(128.617 2.7818 0)
(135.851 1.6739 0)
(145.54 0.445902 0)
(159.495 -0.87105 0)
(180.979 -2.22984 0)
(197.278 -3.33047 0)
(195.716 -3.86013 0)
(167.373 -3.75207 0)
(115.619 -3.01797 0)
(82.9711 -3.06113 0)
(76.4709 -4.36454 0)
(89.6075 -6.43463 0)
(112.088 -8.88395 0)
(128.675 -11.1403 0)
(134.404 -11.8758 0)
(134.84 -11.0489 0)
(135.982 -9.58249 0)
(142.126 -7.1337 0)
(156.66 -3.06232 0)
(176.575 2.56206 0)
(185.795 7.78167 0)
(175.36 10.3214 0)
(147.143 11.1067 0)
(115.886 10.375 0)
(105.793 10.1609 0)
(112.702 10.5321 0)
(125.414 10.6026 0)
(137.045 9.71415 0)
(149.257 7.0584 0)
(149.807 3.08819 0)
(139.045 0.578031 0)
(125.117 -1.72521 0)
(118.411 -2.89938 0)
(122.243 -3.92221 0)
(136.341 -5.31517 0)
(147.855 -5.55872 0)
(147.051 -4.66521 0)
(140.35 -2.91394 0)
(131.032 -1.09022 0)
(127.91 -0.439417 0)
(129.706 -0.336817 0)
(135.68 -0.471291 0)
(139.733 -0.532191 0)
(139.252 -0.32367 0)
(136.59 0.098627 0)
(133.639 0.548478 0)
(133.179 0.631544 0)
(134.237 0.499475 0)
(136.288 0.114737 0)
(136.945 -0.121797 0)
(136.524 -0.174136 0)
(135.176 -0.0383827 0)
(134.101 0.217819 0)
(134.06 0.319737 0)
(134.515 0.35206 0)
(135.259 0.273197 0)
(135.555 0.203467 0)
(135.455 0.18695 0)
(135.272 0.206481 0)
(135.192 0.235863 0)
(135.306 0.249575 0)
(135.615 0.23212 0)
(135.806 0.205303 0)
(135.746 0.192555 0)
(135.527 0.194725 0)
(135.166 0.220284 0)
(134.933 0.234481 0)
(134.853 0.213973 0)
(134.823 0.178253 0)
(134.768 0.137392 0)
(134.662 0.0966305 0)
(134.53 0.0595738 0)
(134.423 0.0266401 0)
(134.378 0.00277827 0)
(134.375 -0.0239595 0)
(134.383 -0.0372113 0)
(134.362 -0.0316839 0)
(134.322 -0.0159941 0)
(134.273 0.018844 0)
(134.236 0.0654048 0)
(134.212 0.105261 0)
(134.179 0.131444 0)
(134.131 0.143021 0)
(134.047 0.143805 0)
(133.945 0.142339 0)
(133.894 0.146635 0)
(133.885 0.153947 0)
(133.915 0.166491 0)
(133.992 0.18314 0)
(134.076 0.199451 0)
(134.107 0.209536 0)
(134.095 0.214672 0)
(134.057 0.220905 0)
(133.986 0.223984 0)
(133.874 0.215347 0)
(133.727 0.191232 0)
(133.577 0.155703 0)
(133.48 0.120433 0)
(133.446 0.0943313 0)
(133.444 0.07372 0)
(133.46 0.0495199 0)
(133.492 0.0290672 0)
(133.535 0.0178939 0)
(133.587 0.0191563 0)
(133.648 0.0308242 0)
(133.707 0.0459748 0)
(133.74 0.0563267 0)
(133.735 0.05897 0)
(133.708 0.0593162 0)
(133.653 0.0554077 0)
(133.56 0.0457126 0)
(133.414 0.0262101 0)
(133.218 -0.00751727 0)
(133.02 -0.0494953 0)
(132.893 -0.082105 0)
(132.847 -0.0988375 0)
(132.834 -0.107439 0)
(132.838 -0.117586 0)
(132.854 -0.127945 0)
(132.883 -0.134256 0)
(132.926 -0.13565 0)
(132.98 -0.136228 0)
(133.033 -0.135685 0)
(133.062 -0.136072 0)
(133.067 -0.138399 0)
(133.062 -0.141203 0)
(133.046 -0.144547 0)
(132.998 -0.146686 0)
(132.902 -0.143559 0)
(132.757 -0.130141 0)
(132.614 -0.106479 0)
(132.543 -0.0744346 0)
(132.533 -0.0426298 0)
(132.544 -0.00998273 0)
(132.582 0.0326204 0)
(132.716 0.0654137 0)
(-2452.58 -1.24795 0)
(-728.15 -3.96697 0)
(351.363 1.90347 0)
(343.782 2.14594 0)
(333.59 5.18024 0)
(326.679 6.74022 0)
(320.393 6.88578 0)
(295.848 7.3325 0)
(244.104 7.06415 0)
(13.5929 5.85958 0)
(-213.545 4.0214 0)
(-227.38 3.65918 0)
(-208.94 3.38909 0)
(-167.403 3.50169 0)
(-114.74 3.4782 0)
(-60.6005 3.48633 0)
(-7.45018 3.25538 0)
(45.1299 2.84773 0)
(98.7779 2.5409 0)
(156.372 2.38314 0)
(221.169 2.56363 0)
(288.427 3.6605 0)
(336.668 4.88809 0)
(355.348 4.90482 0)
(361.992 4.1802 0)
(356.414 3.63534 0)
(293.923 2.63222 0)
(42.3118 0.466933 0)
(-123.893 -0.876229 0)
(-125.116 -1.08114 0)
(-103.277 -1.196 0)
(-65.6419 -1.27083 0)
(-30.4977 -1.55504 0)
(-2.21043 -2.01056 0)
(22.4618 -2.48447 0)
(46.3374 -2.86914 0)
(70.6564 -3.13879 0)
(95.7438 -3.30813 0)
(121.446 -3.39233 0)
(147.196 -3.30862 0)
(172.974 -3.00094 0)
(201.51 -2.23108 0)
(240.781 -0.895589 0)
(297.223 0.993859 0)
(332.313 2.71505 0)
(334.33 3.4029 0)
(302.305 3.83738 0)
(137.723 1.96602 0)
(-26.1385 -0.464659 0)
(-38.686 -0.625119 0)
(-28.2227 -0.464833 0)
(-1.98732 -0.0210141 0)
(26.1848 0.456802 0)
(46.0888 0.890386 0)
(60.4402 1.40768 0)
(73.6482 2.06456 0)
(88.0696 2.79275 0)
(104.251 3.58082 0)
(121.516 4.45881 0)
(138.514 5.44289 0)
(154.084 6.44278 0)
(168.73 7.22726 0)
(185.929 7.86803 0)
(213.892 8.53645 0)
(259.15 9.41915 0)
(287.028 9.87033 0)
(287.877 9.64023 0)
(263.157 8.67885 0)
(146.402 6.12141 0)
(23.0817 3.45111 0)
(9.06545 2.51342 0)
(13.915 1.95054 0)
(30.8581 1.45039 0)
(53.9992 1.03762 0)
(71.1578 0.725392 0)
(81.8225 0.575692 0)
(90.6087 0.494747 0)
(100.467 0.475948 0)
(112.585 0.5546 0)
(126.326 0.761658 0)
(139.578 1.11059 0)
(150.693 1.62059 0)
(160.375 2.27196 0)
(171.484 2.9811 0)
(190.019 3.70875 0)
(223.135 4.44488 0)
(248.581 4.89818 0)
(252.03 4.9479 0)
(240.788 4.75882 0)
(175.375 3.54536 0)
(62.8378 1.24979 0)
(31.8416 0.27336 0)
(33.2917 -0.15611 0)
(42.1567 -0.518688 0)
(60.6268 -0.775332 0)
(79.4125 -1.05412 0)
(90.7501 -1.35434 0)
(97.4636 -1.56581 0)
(103.615 -1.68715 0)
(111.378 -1.74107 0)
(121.668 -1.72278 0)
(133.457 -1.59191 0)
(144.261 -1.3432 0)
(153.033 -1.0305 0)
(161.422 -0.673459 0)
(172.975 -0.096996 0)
(193.326 0.719969 0)
(220.553 1.4853 0)
(231.739 2.12711 0)
(231.257 2.65123 0)
(209.892 2.99776 0)
(132.097 1.78931 0)
(55.1362 -0.168912 0)
(42.3114 -0.962078 0)
(45.7992 -1.45373 0)
(55.9044 -1.95765 0)
(73.4354 -2.40455 0)
(89.068 -2.88874 0)
(96.7848 -3.40819 0)
(100.876 -3.82222 0)
(104.84 -4.19899 0)
(109.959 -4.51945 0)
(117.673 -4.79537 0)
(127.929 -5.0925 0)
(138.522 -5.57209 0)
(147.158 -6.05487 0)
(154.102 -6.34162 0)
(162.806 -6.35799 0)
(177.132 -5.96566 0)
(198.261 -5.17942 0)
(213.648 -4.36738 0)
(214.461 -3.65572 0)
(198.496 -2.97406 0)
(144.45 -2.61841 0)
(73.6267 -2.35552 0)
(54.3069 -1.92785 0)
(53.4314 -1.47618 0)
(63.852 -0.859758 0)
(82.3985 -0.097663 0)
(99.7665 0.674694 0)
(108.723 1.17114 0)
(111.15 1.31087 0)
(112.235 1.29879 0)
(115.085 1.11849 0)
(121.29 0.659322 0)
(130.478 -0.117946 0)
(140.053 -1.21888 0)
(148.181 -2.37163 0)
(156.703 -3.37213 0)
(170.745 -4.14192 0)
(193.106 -4.46644 0)
(209.732 -3.74953 0)
(204.23 -2.63139 0)
(177.16 -1.13951 0)
(113.147 0.195685 0)
(73.9185 1.01464 0)
(66.9634 1.52158 0)
(74.1813 2.03322 0)
(93.3638 2.85984 0)
(114.098 3.79247 0)
(124.103 4.14864 0)
(124.829 4.12266 0)
(123.697 3.92011 0)
(124.394 3.45802 0)
(128.576 2.78714 0)
(135.824 2.0233 0)
(145.397 1.16086 0)
(159.223 0.0532761 0)
(180.769 -1.4126 0)
(197.711 -3.18878 0)
(197.257 -4.26363 0)
(169.871 -4.84196 0)
(118.007 -4.47738 0)
(83.1247 -4.70187 0)
(74.6892 -6.00545 0)
(86.8131 -7.76892 0)
(108.623 -10.3326 0)
(125.435 -12.1918 0)
(131.508 -13.0054 0)
(132.157 -12.6258 0)
(133.636 -11.3851 0)
(140.828 -8.96831 0)
(157.081 -4.31811 0)
(176.444 2.63017 0)
(182.193 8.70876 0)
(168.128 12.0367 0)