/*--------------------------------*- C++ -*----------------------------------*\
| =========                 |                                                 |
| \\      /  F ield         | OpenFOAM: The Open Source CFD Toolbox           |
|  \\    /   O peration     | Version:  2306                                  |
|   \\  /    A nd           | Website:  www.openfoam.com                      |
|    \\/     M anipulation  |                                                 |
\*---------------------------------------------------------------------------*/
FoamFile
{
    version     2.0;
    format      ascii;
    arch        "LSB;label=32;scalar=64";
    class       volScalarField;
    location    "0.14";
    object      p;
}
// * * * * * * * * * * * * * * * * * * * * * * * * * * * * * * * * * * * * * //

dimensions      [1 -1 -2 0 0 0 0];

internalField   nonuniform List<scalar> 
6000
(
3.95798e+07
72660.9
152262
206395
217069
216618
217191
216674
215439
214118
206826
176768
115424
97932.5
99802.8
105578
113731
122016
129867
137509
145343
153659
162918
173844
187139
202734
217247
224869
226142
224744
209062
153539
121511
121097
124771
131295
137499
142470
146559
150131
153536
157034
160876
165192
169916
174899
180387
187883
200104
211180
212156
205998
173897
138224
133558
134834
139227
144749
149099
152199
154592
156831
159307
162183
165406
168746
171917
174902
178239
183570
192866
202447
204928
201801
182973
154057
147083
147337
149879
154066
157600
159694
161110
162670
164841
167656
170730
173485
175550
177125
178990
182802
189940
196251
198250
196224
183535
160570
152605
152298
153730
156877
160406
162765
164136
165245
166614
168521
170930
173395
175403
176998
178673
181165
185543
189995
190750
189556
184405
167959
154473
152676
153575
154866
157442
160450
162475
163603
164533
165665
167177
169109
171177
172924
174273
175606
177578
181419
187481
190971
190939
188771
177996
162987
159601
160631
162628
166097
169193
170268
170519
170610
170792
171231
172007
172901
173608
173932
174252
174939
176512
179667
182240
182342
181073
174317
161710
156427
156440
157366
159870
163469
165902
166941
167628
168343
169216
170318
171707
173324
174783
175806
176617
177642
179620
182647
184539
184785
183169
175667
164961
161883
162161
163671
166466
168930
170062
170219
170025
169832
169811
170010
170774
172129
173856
174874
175169
175223
175450
176414
178215
179062
178722
175602
168254
161813
160459
161386
164267
168658
171726
172075
171564
170689
169992
169508
169496
170419
172473
175075
177509
179878
182679
185379
185308
183407
175861
163787
157500
156856
158103
161589
165112
166180
166106
166260
167290
169664
172380
174361
176032
178684
183941
190379
188165
179836
164938
158520
158064
161796
165054
165613
165542
166141
168250
172399
178487
182179
183042
182385
178096
171764
165806
163457
162691
164054
172262
180317
180101
175150
166897
164146
164785
169134
175013
176704
175517
172260
168715
167640
167816
169844
171774
171860
171269
170303
170091
170353
171435
172087
3.95652e+07
70945.3
151982
206965
217820
217599
218406
218005
216495
214856
207107
175804
114495
97960.7
99833.3
105595
113735
122064
129970
137669
145496
153769
162924
173725
186867
202350
216869
224471
225735
224427
209028
153871
121800
121365
124892
131238
137287
142196
146356
150102
153710
157434
161505
166018
170855
175828
181259
188645
200679
211584
212453
206403
174550
138904
134366
135683
140009
145387
149547
152479
154790
157005
159483
162347
165538
168855
172047
175100
178507
183744
192901
202111
204185
201181
182493
153701
146928
147302
149823
153968
157464
159536
160950
162501
164633
167366
170333
172989
175029
176665
178647
182519
189656
196022
197811
195883
183482
160468
152440
152213
153636
156770
160278
162591
163901
164944
166235
168051
170386
172824
174831
176388
177982
180343
184555
189297
190608
189700
185075
169154
154867
152780
153550
154820
157387
160401
162426
163544
164473
165574
167045
168948
171006
172769
174150
175515
177500
181354
187400
190785
190817
188638
177834
162935
159556
160442
162212
165497
168499
169582
169855
169965
170183
170754
171792
173040
173972
174463
174904
175652
177271
180479
183118
183257
182037
175275
162477
157039
157063
157958
160396
163902
166174
167031
167562
168131
168864
169868
171274
173022
174633
175773
176662
177771
179821
182899
184879
185073
183536
176060
165137
161896
162154
163640
166380
168700
169658
169707
169434
169194
169201
169465
170292
171716
173494
174657
175151
175465
175975
177152
178918
179581
179124
175960
168537
161989
160554
161402
164143
168369
171386
171791
171346
170710
170266
169934
169999
170900
172835
175190
177223
179155
181692
184361
184376
182616
175433
163886
157828
157365
158864
162613
166168
166912
166591
166549
167165
169000
171689
174011
175825
178418
183362
189097
187200
179601
164993
158443
158295
162603
165937
165964
165551
166025
168102
172267
178534
182224
182902
181938
177637
171751
166106
163733
162696
164057
172382
180195
179948
175189
167386
164647
165033
168929
174342
175662
174402
171253
168407
167974
168688
170863
172163
171950
170901
169809
169711
170149
171548
172261
3.95551e+07
68585.3
151026
207681
219046
219251
220313
219807
217812
215770
207650
174576
113274
98174.5
99982.9
105674
113719
122045
130074
137875
145696
153904
162950
173664
186695
202066
216676
224156
225218
223860
208719
154160
122174
121736
125038
131118
136943
141767
146082
150159
154084
157990
162126
166665
171595
176700
182211
189529
201246
211875
212571
206892
175631
140002
135556
136842
140983
146113
149997
152741
155022
157286
159787
162607
165727
169024
172300
175499
179000
184000
192806
201591
203105
200362
181851
153349
146918
147370
149769
153801
157249
159324
160762
162311
164383
167003
169851
172454
174540
176279
178333
182170
189246
195750
197153
195405
183353
160278
152183
152145
153531
156631
160122
162402
163678
164691
165936
167687
169929
172243
174140
175638
177169
179308
183191
188347
190299
189693
185881
171042
155601
153010
153590
154832
157417
160467
162525
163624
164482
165479
166853
168699
170753
172546
173974
175395
177454
181405
187399
190576
190715
188500
177588
162750
159346
159981
161434
164478
167453
168639
168981
169163
169459
170130
171405
173088
174345
175009
175562
176381
178192
181702
184515
184751
183617
176824
163706
158029
158051
158909
161272
164700
166688
167293
167562
167880
168425
169275
170623
172450
174218
175472
176430
177605
179764
183024
185214
185492
184100
176690
165460
161928
162145
163544
166160
168381
169229
169128
168651
168247
168194
168552
169489
171062
172996
174377
175077
175624
176424
177879
179776
180370
179885
176554
168821
162144
160686
161434
163960
167901
170777
171161
170801
170485
170264
170319
170764
171864
173668
175614
177152
178503
180451
182835
182847
181214
174688
164222
158316
157909
159529
163629
167603
168266
167584
167115
167205
168204
170354
173022
175450
178217
182675
187158
185407
178708
165342
158632
158532
163531
167258
166724
165862
166294
168286
172561
178855
182702
183063
181258
176134
170889
166303
164642
163332
164376
172427
179859
179597
175058
168188
166152
166642
170401
174758
174874
173039
169645
167750
167727
169527
172364
173097
172413
170678
169199
169089
169745
171583
172468
3.95439e+07
69926.2
150440
208204
220535
221274
222675
221868
219089
216748
208448
173625
112442
98654.3
100281
105800
113675
122001
130158
138106
145969
154107
162986
173490
186374
201657
216360
223978
225014
223655
208798
154822
122720
122159
125220
131004
136557
141265
145713
150118
154386
158536
162770
167359
172282
177407
183014
190367
201856
212195
212736
207549
177020
141367
136960
138090
141936
146760
150395
153018
155313
157652
160188
162974
166039
169340
172707
176025
179584
184354
192754
201068
201953
199341
180960
152937
146846
147352
149681
153633
157038
159121
160598
162147
164147
166649
169384
171919
173999
175804
177959
181670
188626
195245
196344
194841
183336
160255
151875
151915
153201
156202
159630
161846
163057
164004
165185
166882
169089
171381
173244
174629
175948
177850
181611
187331
190086
189874
186861
173272
156709
153446
153805
154967
157496
160535
162551
163611
164402
165299
166573
168360
170427
172272
173743
175207
177341
181395
187286
190178
190451
188215
177121
162359
159047
159336
160526
163204
165982
167217
167655
167981
168441
169324
170979
173175
174819
175732
176397
177313
179323
183121
186170
186547
185537
178679
165040
159049
159030
159803
162017
165204
166919
167374
167482
167603
167944
168669
169937
171786
173667
175063
176161
177492
179857
183360
185710
186019
184721
177257
165655
161854
162026
163328
165796
167871
168570
168322
167679
167206
167130
167610
168723
170533
172640
174207
175069
175771
176758
178500
180703
181468
180990
177451
169180
162221
160726
161340
163639
167308
170007
170312
170024
169871
169956
170359
171274
172765
174595
176140
176932
177496
178824
181109
181387
180055
174475
164864
158861
158454
160154
164597
169071
169942
169069
167855
167353
167530
168916
171387
174272
177425
181424
185073
183804
178325
166614
159637
159215
164849
168550
167447
166116
166240
168322
173328
179556
183221
183514
179966
173154
168980
166119
166101
165022
165342
172194
178733
178164
173765
167973
166433
167305
172092
175940
175085
172300
168285
166827
167268
169979
173438
174016
173079
170636
168718
168592
169387
171592
172649
3.95333e+07
75599.1
150608
208191
221953
223233
224916
223450
219876
217543
209357
173436
112294
99363.7
100723
105967
113611
121901
130186
138306
146212
154259
163012
173304
185924
201073
215881
223833
225169
223982
209292
155585
123357
122666
125501
131005
136312
140870
145333
149928
154481
158864
163170
167689
172561
177782
183564
190951
202258
212404
212843
208228
178550
142762
138163
139127
142673
147180
150612
153159
155496
157922
160526
163339
166417
169758
173194
176565
180110
184732
192720
200640
201046
198377
180099
152648
146759
147392
149732
153588
156896
158948
160443
162000
163955
166360
168995
171501
173643
175553
177723
181238
187979
194722
195662
194310
183524
160504
151501
151630
152837
155787
159203
161420
162622
163555
164704
166333
168416
170573
172331
173629
174856
176662
180355
186472
189994
190131
187774
175469
158127
154049
154198
155318
157828
160863
162861
163849
164529
165279
166413
168113
170161
172001
173458
174918
177074
181153
186887
189544
189930
187636
176325
161725
158515
158536
159503
161793
164351
165641
166168
166626
167282
168432
170434
173039
175135
176290
177081
178117
180270
184218
187509
188025
187184
180409
166317
159903
159812
160445
162413
165319
166855
167203
167147
167121
167356
168045
169283
171172
173139
174634
175864
177378
179979
183675
186104
186376
185008
177305
165372
161492
161647
162887
165229
167184
167757
167418
166776
166409
166369
166948
168188
170130
172319
173915
174826
175583
176737
178873
181477
182531
182120
178435
169514
162150
160561
161026
163126
166588
169108
169325
169063
169002
169298
170047
171339
173192
175133
176290
176428
176456
177396
179725
180570
179599
174684
165597
159400
158921
160671
165427
170332
171494
170593
168742
167577
167118
167852
169873
172699
175897
179609
182996
182856
178318
168478
161462
160297
165883
169393
167696
165660
165915
168838
175046
181212
183692
182787
176682
169460
166743
165696
167636
167664
167583
172704
177933
176592
172007
166868
165524
166945
172795
177320
176385
172889
167854
165989
166547
169745
173792
174562
173613
170832
168515
168393
169231
171626
172749
3.95319e+07
78861.6
150734
208006
222928
224611
226362
224189
220141
218049
210333
174253
112917
100148
101176
106128
113530
121745
130145
138441
146494
154546
163201
173311
185736
200740
215531
223931
225761
224764
210080
156176
123919
123201
125907
131226
136327
140709
145085
149729
154395
158884
163254
167747
172610
177833
183666
191121
202432
212602
213073
208980
180065
143928
138982
139838
143155
147400
150699
153231
155649
158194
160922
163851
167005
170364
173773
177099
180573
185036
192776
200401
200582
197778
179401
152334
146633
147431
149791
153568
156764
158784
160312
161914
163882
166274
168896
171402
173565
175498
177640
180902
187286
194124
195097
193823
183740
160796
151019
151118
152282
155152
158551
160765
161928
162787
163842
165371
167377
169512
171341
172775
174122
175957
179556
185780
189884
190303
188446
177365
159682
154709
154685
155759
158282
161376
163336
164211
164782
165413
166421
168027
170034
171869
173323
174751
176898
180920
186264
188571
188980
186551
175023
160663
157567
157422
158186
160178
162635
164067
164730
165319
166144
167525
169726
172549
174994
176454
177422
178569
180772
184703
188105
188732
188108
181617
167495
160813
160687
161198
162853
165282
166576
166827
166677
166586
166747
167416
168737
170751
172817
174376
175669
177291
179999
183627
185997
186236
184733
176735
164673
160824
160947
162110
164338
166246
166856
166596
166191
165996
166049
166729
168068
170076
172197
173669
174559
175390
176758
179221
182155
183433
183047
179256
169676
161924
160302
160643
162575
165838
168179
168300
167982
167893
168236
169207
170825
172899
174857
175738
175710
175677
176541
178970
180458
179786
175404
166685
160257
159642
161358
166233
171299
172544
171572
169506
167839
166972
167166
168738
171198
174097
177397
180767
181937
178489
170778
163263
161391
166222
169781
167915
165739
166663
171006
177962
182791
183333
180221
171033
165560
164031
165077
168391
170167
171015
175135
178787
176383
171061
165763
164000
165763
172528
178431
177826
174278
168243
165499
165863
168979
173532
174734
173986
171302
168670
168432
169161
171504
172708
3.95451e+07
77767.4
150628
208278
223401
225219
226826
224158
220003
218284
211120
175675
113938
100770
101488
106200
113403
121533
130031
138569
146874
155077
163718
173689
185945
200737
215596
224524
226966
225907
210575
155726
123909
123230
126091
131477
136528
140788
145000
149508
154169
158679
163052
167529
172320
177485
183319
190822
202287
212813
213526
209824
181466
144744
139418
140184
143388
147534
150731
153203
155616
158235
161087
164159
167453
170918
174349
177558
180821
185193
192913
200432
200540
197641
179034
152071
146531
147434
149781
153471
156548
158494
160020
161675
163722
166199
168913
171483
173688
175619
177647
180652
186711
193607
194724
193543
184067
161130
150497
150509
151618
154390
157746
159931
161034
161813
162793
164304
166407
168764
170827
172406
173794
175608
179029
185160
189660
190267
188804
178861
161156
155282
155115
156105
158626
161894
163998
164862
165387
165960
166866
168317
170175
171930
173319
174684
176716
180540
185355
187268
187578
184949
173284
159327
156384
156182
156824
158678
161186
162801
163580
164261
165196
166668
168909
171792
174440
176198
177332
178568
180810
184662
188021
188752
188256
181948
167968
161231
161113
161561
163005
165052
166133
166259
166014
165889
166057
166826
168309
170476
172663
174307
175630
177229
179878
183275
185358
185524
183871
175518
163497
159886
159989
161080
163251
165251
166087
166077
165898
165845
166055
166879
168317
170326
172280
173603
174457
175310
176774
179509
182736
184035
183608
179653
169470
161572
159998
160279
162090
165181
167380
167436
167018
166793
166927
167732
169340
171513
173546
174725
175077
175292
176266
178751
180833
180389
176606
168310
161562
160752
162350
167043
171931
173039
171944
169834
168068
167078
166960
168026
170052
172463
175275
178662
181255
179314
173417
165176
162410
165523
170363
168928
167337
168417
173968
180523
183054
181913
175339
165436
162089
161686
163843
167947
170832
173413
178268
181182
177772
171394
165369
162824
164116
170936
178745
178711
175699
169297
165347
165447
168132
172935
174710
174226
171852
169015
168597
169154
171294
172560
3.95677e+07
72052.6
149758
208587
223310
224948
226412
223576
219606
218159
211515
176943
115012
101174
101678
106205
113249
121288
129865
138664
147345
155812
164543
174402
186430
201004
215903
225112
228132
226966
210540
154532
123489
122897
126044
131669
136840
141068
145104
149367
153839
158303
162693
167184
171942
177042
182795
190326
202080
213176
214264
210765
182677
145189
139541
140397
143633
147788
150940
153326
155675
158307
161264
164501
167950
171471
174815
177843
180897
185273
193172
200763
200919
197973
179047
151880
146422
147311
149622
153241
156213
158066
159557
161255
163412
166035
168908
171676
174029
175947
177760
180470
186241
193198
194614
193598
184773
161903
150217
150026
151011
153674
157047
159302
160436
161230
162249
163863
166156
168743
170985
172616
173924
175520
178660
184541
189317
190069
188915
179975
162452
155681
155396
156263
158719
162105
164441
165473
166107
166785
167764
169225
171007
172592
173767
174917
176703
180131
184276
185771
185873
183009
171388
157959
155222
155089
155739
157596
160213
161967
162791
163474
164394
165841
168048
170913
173666
175574
176868
178224
180501
184207
187296
187960
187429
181130
167426
160895
160789
161196
162695
164805
165873
165882
165517
165386
165670
166535
168090
170389
172704
174385
175665
177162
179620
182554
184198
184310
182294
173406
161792
158668
158810
159916
162208
164625
165788
165955
165880
165979
166420
167367
168845
170781
172582
173799
174610
175459
176979
179884
183148
184238
183727
179521
168934
161164
159771
160024
161728
164640
166722
166720
166208
165773
165638
166036
167242
169291
171749
173760
174795
175383
176439
178779
181458
181251
178313
170570
163297
162068
163311
167560
172153
173066
171873
169793
168176
167247
167140
168017
169559
171422
173765
177027
180522
180298
175702
167072
163199
164860
170539
170130
169166
170175
175526
180960
180928
177757
169512
162310
160699
161519
163542
166504
169507
173807
180396
183936
180190
172762
165551
162163
162735
168930
177868
179093
176691
170473
165526
165344
167550
172310
174606
174352
172315
169375
168748
169155
171030
172347
3.95901e+07
65401.2
148582
208906
223040
224376
225308
222490
219027
217902
211591
177848
115951
101438
101799
106184
113093
121024
129635
138678
147780
156604
165465
175211
187014
201431
216433
225624
229340
228005
210033
152745
122703
122211
125719
131674
137113
141410
145306
149309
153493
157797
162192
166786
171649
176750
182445
189982
202010
213727
215260
211785
183734
145438
139485
140433
143825
148165
151381
153698
155937
158516
161529
164906
168502
172074
175313
178119
180955
185380
193553
201252
201674
198680
179307
151663
146207
146984
149249
152833
155743
157517
158936
160621
162866
165685
168859
171954
174476
176315
177902
180358
185850
192922
194726
194022
186008
163445
150538
150075
150924
153462
156866
159228
160430
161280
162358
164044
166417
169097
171411
173021
174249
175677
178472
183955
188873
189759
188844
180750
163548
156077
155731
156479
158803
162139
164536
165720
166566
167499
168743
170462
172368
173855
174813
175633
176990
179809
183244
184375
184235
181206
169910
157016
154429
154425
155137
157022
159704
161561
162373
162968
163791
165149
167278
170066
172835
174850
176244
177668
179946
183452
186097
186647
185965
179562
166194
160020
159920
160325
162002
164499
165823
165966
165666
165536
165834
166685
168237
170508
172724
174229
175342
176699
179036
181545
182615
182525
179970
170851
160109
157542
157801
159008
161504
164303
165683
166000
166103
166404
167060
168079
169549
171380
173073
174251
175049
175907
177462
180311
183292
183973
183298
178971
168098
160688
159525
159780
161470
164321
166248
166167
165583
164922
164598
164645
165457
167305
170001
172665
174405
175406
176574
178862
182108
182357
180312
173164
165185
163155
163881
167491
171787
172720
171593
169649
168154
167269
167221
168129
169524
171140
173120
176101
179855
180871
177045
168502
163628
164117
170127
171583
170490
170643
174377
178202
177295
173180
166293
162039
161359
162311
164103
166150
169294
174418
181438
185578
182249
174302
165955
161897
161807
167247
176493
179080
177186
171348
165840
165399
167277
171936
174589
174464
172648
169626
168765
169067
170720
172136
3.95986e+07
65054.4
147323
208834
222773
223754
223870
221431
218619
217790
211581
178202
116398
101482
101820
106146
112978
120830
129442
138655
148074
157246
166210
175827
187497
201880
216991
225945
230182
228511
208995
150857
121747
121266
125188
131592
137389
141865
145689
149403
153256
157329
161717
166465
171491
176719
182438
189976
202183
214430
216404
212814
184630
145478
139257
140299
143914
148576
152003
154345
156502
158998
162003
165449
169133
172739
175909
178558
181242
185706
194082
201832
202501
199438
179664
151425
145858
146469
148666
152251
155194
156967
158344
160021
162347
165378
168829
172129
174715
176476
177880
180194
185511
192752
194978
194677
187477
165442
151265
150444
151174
153563
156938
159393
160688
161620
162801
164620
167115
169871
172173
173675
174665
175798
178244
183310
188231
189202
188417
180976
164210
156144
155772
156464
158715
162046
164605
165965
166916
167993
169517
171626
173873
175439
176270
176804
177642
179686
182430
183310
182976
179933
169165
156685
154075
154170
154913
156824
159574
161538
162365
162897
163635
164877
166867
169555
172302
174331
175695
177058
179250
182448
184569
184962
184037
177600
164729
158928
158859
159344
161160
164104
165874
166351
166334
166364
166710
167510
168879
170802
172687
173990
174916
176067
178047
180049
180639
180339
177596
168978
159155
156871
157180
158404
160937
163995
165635
166186
166517
167001
167798
168872
170342
172147
173818
174990
175792
176622
178098
180699
183139
183519
182724
178125
167043
160180
159245
159495
161183
164018
165825
165675
165061
164336
163974
163904
164542
166232
168879
171729
173873
175267
176679
179127
182768
183647
182201
175454
166732
163616
163870
167008
171257
172213
171064
169204
167935
167271
167642
168908
170262
171518
173180
175942
179594
180902
177347
168799
163143
162922
168760
171843
171153
171283
174059
177380
176870
173234
167027
162743
161881
163062
164844
167279
170305
175091
182289
185587
182457
174691
166454
162137
161488
166292
175550
178962
177333
171796
166044
165438
167197
171795
174622
174547
172822
169723
168690
168931
170475
172023
3.95902e+07
72190.4
146678
207967
222814
223374
222762
220922
218736
218049
211476
177675
116246
101455
101868
106148
112952
120785
129391
138652
148253
157598
166566
176066
187593
201925
217209
225894
230501
228451
207824
149533
120924
120326
124576
131404
137630
142376
146167
149609
153161
157076
161463
166358
171614
177016
182816
190351
202559
215180
217461
213643
185270
145410
138947
140171
144034
148970
152582
155020
157181
159638
162612
166053
169742
173342
176482
179078
181729
186214
194592
202301
203296
200153
180206
151330
145413
145836
147979
151620
154702
156540
157958
159663
162047
165176
168708
172085
174759
176571
177986
180233
185377
192758
195385
195344
188830
167553
152127
150916
151547
153793
157133
159697
161110
162185
163550
165508
168091
170837
173007
174263
174962
175844
177995
182678
187540
188569
187873
180920
164545
156087
155707
156368
158573
161873
164452
165839
166843
168086
169951
172532
175187
176909
177648
178014
178506
179847
181953
182699
182273
179357
169134
156785
154036
154188
154969
156917
159717
161796
162682
163199
163883
165024
166864
169430
172121
174102
175383
176631
178672
181555
183271
183503
182404
176051
163738
158304
158241
158826
160748
163891
166021
166780
167133
167521
168114
168942
170030
171382
172674
173537
174163
175029
176621
178364
178850
178630
176194
168161
158776
156527
156794
157946
160363
163608
165611
166393
166925
167544
168412
169544
171076
172967
174748
175989
176791
177521
178785
181082
182975
183032
182069
177122
166009
159785
159046
159282
160973
163819
165566
165373
164767
164075
163783
163762
164363
165920
168390
171171
173469
175131
176799
179509
183454
184919
183753
177163
167717
163571
163448
166141
170250
171373
170323
168730
167788
167387
168117
169846
171518
172683
174052
176389
179569
180627
176986
168176
162014
161421
166831
170348
170380
171091
173440
176804
178348
176237
171256
165203
162607
164030
166330
168659
171657
175992
181309
183499
180500
174058
166977
162829
161876
166324
175563
179012
177270
171588
165963
165409
167175
171777
174620
174557
172838
169742
168647
168875
170384
171969
3.95792e+07
78124.2
146761
206378
222817
223255
222321
221055
219278
218623
211322
176713
115739
101392
101906
106209
113007
120838
129451
138794
148430
157680
166483
175782
187084
201409
216854
225455
230421
228157
207239
149204
120502
119701
124074
131183
137817
142903
146727
149977
153277
157073
161504
166545
172028
177649
183513
190977
203075
215859
218278
214207
185604
145270
138600
139931
144007
149169
152957
155513
157721
160193
163133
166519
170156
173749
176898
179520
182217
186683
195084
202892
203890
200696
181023
151542
144984
145231
147358
151100
154398
156442
157944
159651
162017
165140
168690
172060
174687
176493
177901
180142
185229
192740
195728
195800
189955
169620
153168
151518
152027
154100
157364
160022
161518
162685
164200
166360
169099
171904
173942
174940
175353
175982
177844
182158
186953
188026
187346
180708
164580
155889
155516
156214
158427
161748
164351
165743
166753
168074
170159
173109
176017
177743
178472
178772
179125
180206
181970
182717
182271
179518
169702
157254
154277
154454
155264
157250
160107
162286
163242
163764
164419
165511
167285
169759
172325
174159
175312
176400
178235
180849
182384
182486
181317
175166
163184
157831
157779
158471
160529
163881
166449
167508
168084
168650
169394
170309
171287
172140
172713
173029
173312
173945
175414
177249
177905
177852
175609
167792
158596
156366
156573
157631
159972
163345
165661
166607
167249
167960
168876
170089
171719
173707
175594
176915
177757
178460
179573
181522
182726
182533
181409
176152
165222
159634
159052
159286
160981
163825
165605
165452
164896
164246
164000
164029
164638
166099
168390
171051
173418
175275
177128
179963
183988
185832
184735
178169
168146
163071
162636
164756
168621
170355
169561
168388
167645
167411
168357
170432
172676
174247
175470
177433
180298
180588
176490
166994
160546
159851
164959
169729
169983
170239
171769
174816
178383
180449
178005
171519
165453
164783
167485
169691
172319
176019
178959
180259
178056
173345
167673
163811
162842
167227
176597
179236
176998
170925
165681
165321
167220
171837
174524
174453
172755
169760
168728
168946
170406
171967
3.95735e+07
73959.2
146848
207721
222779
222904
222386
221524
219839
218918
210946
175615
115235
101430
102057
106347
113181
121107
129804
139144
148598
157572
166087
175140
186298
200643
216220
225124
230121
227869
207390
149740
120550
119571
123941
131210
138122
143430
147326
150516
153696
157385
161841
167023
172654
178383
184237
191565
203496
216279
218640
214395
185613
145022
138196
139504
143690
149004
152967
155706
158059
160545
163416
166697
170253
173814
177050
179850
182641
187071
195376
203249
204115
200979
182156
152196
144743
144835
146930
150783
154331
156612
158205
159869
162118
165082
168500
171825
174442
176231
177659
179983
184964
192469
195722
195674
190508
171357
154051
151968
152413
154318
157485
160217
161854
163151
164812
167132
170004
172895
174843
175648
175861
176276
177910
181931
186679
187778
187049
180512
164466
155583
155216
155984
158233
161579
164202
165601
166605
167957
170162
173229
176201
177990
178667
178908
179253
180438
182537
183600
183216
180537
170828
158066
154761
154887
155701
157710
160675
163023
164092
164660
165317
166376
168079
170420
172779
174391
175385
176344
178027
180509
182019
182000
180818
174828
163122
157732
157685
158478
160681
164269
167130
168269
168830
169402
170133
171065
172085
172821
173047
173000
173039
173608
175179
177121
177753
177721
175441
167567
158529
156415
156591
157591
159863
163275
165820
166893
167585
168347
169302
170556
172203
174165
176034
177385
178276
179018
180052
181634
182425
182091
180874
175486
164835
159758
159302
159588
161369
164208
166009
165884
165362
164758
164550
164615
165208
166589
168752
171316
173712
175695
177658
180528
184505
186399
185240
178495
167980
161949
161233
162828
166713
169333
169012
168132
167559
167559
168718
170869
173276
175345
177172
179392
181828
181183
176315
165672
158972
158246
163518
169423
169846
169670
170395
172553
176385
181130
185207
179276
170336
165465
166561
168645
170907
173712
176169
176530
175702
172456
168574
165415
164831
169242
177758
178810
176201
170167
165527
165358
167424
171905
174200
174102
172424
169680
168890
169148
170621
172005
3.95742e+07
66730.8
147628
209041
222306
222228
222336
221737
219944
218563
210073
174684
114907
101329
102046
106418
113371
121465
130278
139559
148755
157402
165697
174647
185828
200250
215961
224992
229958
227817
207991
150778
120969
119853
124194
131464
138344
143714
147757
151103
154356
158034
162433
167647
173364
179061
184804
192003
203794
216411
218617
214253
185318
144686
137782
138902
143036
148445
152633
155614
158131
160672
163444
166542
169932
173473
176890
179970
183000
187335
195249
203266
204007
201138
183747
153408
144784
144745
146799
150753
154561
157033
158696
160282
162358
165128
168390
171599
174185
175993
177521
179831
184590
191894
195366
195173
190618
172783
154862
152346
152765
154540
157639
160436
162174
163541
165262
167666
170641
173652
175674
176433
176580
176922
178505
182440
187089
188112
187241
180498
164265
155351
155004
155851
158145
161477
164065
165456
166441
167726
169788
172652
175628
177430
178151
178497
179027
180522
183217
184841
184602
182207
172666
159294
155478
155498
156281
158291
161364
163895
165104
165751
166446
167506
169150
171318
173366
174750
175623
176490
178073
180509
182071
181969
180800
175063
163637
158043
157916
158706
160913
164526
167454
168696
169261
169722
170294
171034
172016
173007
173574
173746
173944
174641
176214
177952
178361
178188
175681
167565
158594
156587
156722
157727
160076
163571
166147
167274
167983
168738
169678
170851
172361
174169
175973
177315
178219
178975
179962
181403
182247
181973
180744
175356
164797
160048
159689
160014
161887
164797
166668
166621
166151
165630
165457
165583
166158
167435
169470
171919
174253
176220
178152
180968
184851
186614
185223
178171
167095
160306
159355
160832
164975
168428