/*--------------------------------*- C++ -*----------------------------------*\
| =========                 |                                                 |
| \\      /  F ield         | OpenFOAM: The Open Source CFD Toolbox           |
|  \\    /   O peration     | Version:  2306                                  |
|   \\  /    A nd           | Website:  www.openfoam.com                      |
|    \\/     M anipulation  |                                                 |
\*---------------------------------------------------------------------------*/
FoamFile
{
    version     2.0;
    format      ascii;
    arch        "LSB;label=32;scalar=64";
    class       volScalarField;
    location    "0.14";
    object      rho;
}
// * * * * * * * * * * * * * * * * * * * * * * * * * * * * * * * * * * * * * //

dimensions      [1 -3 0 0 0 0 0];

internalField   nonuniform List<scalar> 
6000
(
41.4617
0.15615
0.244419
0.282145
0.28803
0.286384
0.286073
0.284894
0.282676
0.279942
0.271326
0.24119
0.178043
0.159128
0.160706
0.166546
0.174838
0.182935
0.190279
0.197145
0.203942
0.210967
0.218716
0.22789
0.238953
0.251471
0.26235
0.267161
0.26684
0.263889
0.248649
0.1985
0.168772
0.167874
0.170811
0.176555
0.181862
0.185911
0.189094
0.191764
0.194232
0.196718
0.199448
0.202563
0.20603
0.209701
0.213707
0.219228
0.228438
0.236647
0.236799
0.231053
0.204002
0.173235
0.168844
0.169632
0.173139
0.177625
0.181003
0.183257
0.184893
0.186396
0.188088
0.190087
0.192348
0.19469
0.196892
0.198932
0.201216
0.205036
0.211914
0.218898
0.220407
0.217593
0.202389
0.178773
0.172804
0.172761
0.174544
0.17772
0.180321
0.181731
0.182602
0.183599
0.185096
0.187107
0.189313
0.191249
0.192619
0.193581
0.194747
0.197397
0.20251
0.206861
0.208016
0.206179
0.196176
0.178056
0.171539
0.17107
0.171919
0.174152
0.176657
0.1782
0.178967
0.179539
0.180322
0.181528
0.183116
0.184735
0.186003
0.186957
0.187953
0.189513
0.192397
0.195332
0.195611
0.19434
0.190104
0.177539
0.167081
0.165482
0.165905
0.166615
0.168318
0.170311
0.171544
0.172102
0.172499
0.173038
0.173866
0.175017
0.176267
0.177267
0.177951
0.178586
0.179643
0.182021
0.185939
0.188032
0.187645
0.185608
0.177509
0.16642
0.163689
0.164107
0.165185
0.167341
0.16915
0.16951
0.169321
0.168993
0.168723
0.168629
0.168771
0.169006
0.169112
0.168948
0.168749
0.168749
0.16933
0.170997
0.172286
0.171959
0.170607
0.165526
0.156536
0.152583
0.152264
0.152499
0.153879
0.15599
0.157264
0.157595
0.157689
0.157796
0.158011
0.158378
0.158922
0.159593
0.160133
0.160368
0.160441
0.160617
0.161383
0.162785
0.163438
0.163094
0.161481
0.156092
0.148762
0.146316
0.145953
0.146315
0.147547
0.148537
0.148681
0.14822
0.147549
0.146937
0.146501
0.146264
0.146447
0.147117
0.148153
0.148853
0.149198
0.149552
0.150161
0.151391
0.15333
0.15491
0.156025
0.155588
0.152497
0.149876
0.150571
0.152915
0.156667
0.161501
0.165469
0.167609
0.16909
0.170205
0.171345
0.172537
0.173983
0.176065
0.178975
0.182306
0.185552
0.188819
0.192518
0.196315
0.198252
0.199104
0.195657
0.188409
0.18577
0.187951
0.192278
0.199037
0.206434
0.212325
0.217811
0.224098
0.231928
0.241945
0.253324
0.265053
0.277654
0.292761
0.312722
0.336442
0.351073
0.357944
0.353135
0.357829
0.37007
0.386985
0.400337
0.406129
0.408491
0.41068
0.414679
0.421056
0.431017
0.43855
0.444828
0.460164
0.493427
0.564954
0.695191
0.894706
1.12377
1.31981
1.47874
1.58024
1.60052
1.58044
1.53352
1.52277
1.53488
1.57424
1.62377
1.64447
1.6475
1.63528
1.61841
1.61723
1.62376
1.64315
1.66098
1.66531
1.66494
1.66095
1.66156
1.66546
1.67523
1.68109
41.4494
0.153774
0.244173
0.282572
0.288682
0.287259
0.287219
0.286192
0.283766
0.280738
0.271635
0.240286
0.177096
0.15918
0.160753
0.166574
0.174845
0.182985
0.19038
0.197299
0.204084
0.21106
0.218697
0.227737
0.238663
0.251108
0.262008
0.266799
0.266497
0.263662
0.248683
0.198847
0.169079
0.168156
0.170941
0.176509
0.181669
0.185661
0.18891
0.19174
0.194391
0.197081
0.200017
0.203303
0.20686
0.210512
0.214459
0.21988
0.22893
0.237009
0.237075
0.231389
0.204556
0.173854
0.169582
0.170396
0.173833
0.178184
0.181389
0.183495
0.18506
0.18654
0.18823
0.190216
0.192448
0.19477
0.196988
0.199081
0.201418
0.205158
0.211923
0.21863
0.219829
0.217094
0.201988
0.178473
0.17267
0.172723
0.174493
0.177637
0.18021
0.181605
0.182477
0.18347
0.184936
0.186882
0.189003
0.190861
0.192214
0.193227
0.194485
0.197181
0.202293
0.206691
0.207691
0.205922
0.196131
0.177971
0.171409
0.171001
0.171838
0.174063
0.176552
0.17806
0.178781
0.179302
0.180025
0.18116
0.182691
0.184292
0.18556
0.186483
0.187415
0.188876
0.191652
0.194796
0.19547
0.194439
0.19058
0.178417
0.167364
0.165544
0.165867
0.16656
0.16826
0.17026
0.171492
0.172041
0.172438
0.172956
0.173757
0.174887
0.176129
0.177139
0.177846
0.178506
0.179576
0.181964
0.185867
0.187881
0.187539
0.185502
0.177384
0.166372
0.163644
0.163958
0.164869
0.166895
0.168645
0.16902
0.16885
0.168539
0.168298
0.168296
0.168624
0.169109
0.169368
0.169319
0.169201
0.169242
0.169863
0.171568
0.172897
0.17259
0.171272
0.16619
0.157081
0.153027
0.152717
0.152927
0.154257
0.156301
0.157463
0.157671
0.15766
0.157667
0.157787
0.15809
0.158649
0.159409
0.160049
0.160359
0.160484
0.160717
0.161531
0.162963
0.163669
0.163293
0.161727
0.156352
0.148883
0.146335
0.145966
0.146311
0.147506
0.14841
0.148451
0.147919
0.147201
0.14656
0.146142
0.14594
0.146156
0.146863
0.147921
0.14871
0.149183
0.149687
0.150469
0.151827
0.153739
0.155203
0.156245
0.155779
0.152641
0.149954
0.1506
0.152891
0.156545
0.161259
0.165189
0.16736
0.168884
0.170164
0.171484
0.172794
0.174307
0.176376
0.179199
0.182347
0.185294
0.188239
0.191742
0.19551
0.197496
0.198437
0.19525
0.188423
0.185966
0.188297
0.192842
0.199821
0.207236
0.212831
0.218071
0.224145
0.231514
0.240886
0.252093
0.264026
0.276634
0.291534
0.31102
0.333887
0.349362
0.358363
0.355729
0.36226
0.376771
0.395882
0.409839
0.414506
0.415798
0.417173
0.420265
0.425623
0.43515
0.442184
0.447533
0.461253
0.49305
0.563655
0.693434
0.892746
1.12098
1.3169
1.47607
1.57563
1.59562
1.57699
1.53366
1.52375
1.53489
1.57141
1.61825
1.63722
1.64021
1.62863
1.61642
1.61947
1.62996
1.65031
1.66357
1.66614
1.66257
1.65753
1.65889
1.66408
1.67612
1.68234
41.4386
0.150412
0.243225
0.283008
0.289683
0.288693
0.289004
0.288005
0.28523
0.281846
0.272301
0.239188
0.175905
0.159479
0.160956
0.166682
0.174836
0.18296
0.190473
0.197487
0.204259
0.211159
0.218664
0.227584
0.238403
0.250792
0.261791
0.266485
0.266095
0.263298
0.24855
0.199216
0.169506
0.16857
0.171124
0.176427
0.181371
0.185282
0.188671
0.191798
0.194737
0.197599
0.200606
0.203921
0.207554
0.211308
0.215312
0.22067
0.229463
0.237336
0.237253
0.231821
0.205487
0.174864
0.170678
0.171442
0.174699
0.178817
0.181774
0.183715
0.18525
0.186765
0.188465
0.190409
0.192577
0.194882
0.197166
0.199371
0.201772
0.205311
0.211796
0.2182
0.218975
0.216401
0.201422
0.178164
0.172652
0.172763
0.174438
0.177496
0.180037
0.181442
0.182339
0.183334
0.184754
0.18661
0.188634
0.190449
0.19184
0.192938
0.194254
0.196915
0.201977
0.206494
0.207213
0.205563
0.19602
0.177812
0.171204
0.170943
0.17174
0.17394
0.176414
0.1779
0.178597
0.179095
0.179779
0.18086
0.182316
0.18382
0.185002
0.185875
0.186751
0.188038
0.190579
0.194034
0.195175
0.194392
0.191128
0.179781
0.167873
0.165671
0.16585
0.16651
0.168226
0.17026
0.171515
0.172045
0.17239
0.172835
0.173569
0.174656
0.175888
0.176915
0.177657
0.178366
0.1795
0.181959
0.185818
0.187674
0.187405
0.185359
0.177174
0.166202
0.163453
0.163585
0.164263
0.166122
0.167874
0.168341
0.168223
0.16797
0.167784
0.167857
0.168364
0.169162
0.169643
0.169706
0.169664
0.169761
0.170531
0.17245
0.17389
0.173639
0.172379
0.167286
0.157977
0.153769
0.15346
0.153638
0.154908
0.156888
0.15785
0.157892
0.157706
0.157547
0.157542
0.157739
0.158265
0.159081
0.159827
0.160211
0.160382
0.160663
0.161553
0.163101
0.163935
0.16361
0.162133
0.156799
0.149129
0.146398
0.14601
0.146301
0.147415
0.148264
0.148243
0.147618
0.146775
0.146033
0.145575
0.145424
0.145696
0.146482
0.147607
0.14852
0.149118
0.14975
0.150705
0.152219
0.154192
0.155603
0.15662
0.156044
0.152705
0.149941
0.150572
0.152791
0.15629
0.160795
0.164616
0.166757
0.168328
0.169826
0.171296
0.172884
0.174683
0.176917
0.179649
0.182495
0.185078
0.187593
0.190656
0.194199
0.196149
0.197156
0.194468
0.188487
0.186131
0.188484
0.193092
0.200323
0.208036
0.213488
0.218303
0.223836
0.230481
0.238699
0.248917
0.260701
0.273443
0.288036
0.306566
0.327901
0.344636
0.357712
0.362206
0.374836
0.395424
0.420563
0.437652
0.441194
0.440682
0.440514
0.440728
0.443285
0.450224
0.455505
0.45863
0.467753
0.493515
0.559584
0.685968
0.883689
1.10922
1.30248
1.45883
1.55531
1.57578
1.56033
1.52619
1.52394
1.5387
1.57644
1.61815
1.63147
1.63162
1.61809
1.61229
1.61808
1.63631
1.66113
1.67022
1.6699
1.6614
1.65349
1.65472
1.66147
1.67658
1.68393
41.4264
0.151658
0.24249
0.283479
0.290932
0.290481
0.291222
0.290125
0.286712
0.283043
0.273285
0.238434
0.17517
0.160108
0.161339
0.166845
0.174792
0.182902
0.190536
0.197691
0.2045
0.211323
0.218639
0.22732
0.237999
0.250353
0.261473
0.266299
0.265939
0.263226
0.248771
0.199959
0.170123
0.169061
0.171373
0.176381
0.181066
0.184861
0.188362
0.191778
0.195029
0.198127
0.201242
0.20462
0.20825
0.212008
0.216082
0.221466
0.230075
0.237716
0.2375
0.232415
0.206689
0.176131
0.171984
0.172571
0.175548
0.179381
0.182111
0.183942
0.185482
0.187049
0.188766
0.190673
0.192792
0.195098
0.19745
0.19974
0.202171
0.205505
0.211663
0.21775
0.21806
0.215508
0.200629
0.177797
0.172581
0.17273
0.174358
0.177361
0.179874
0.181297
0.182234
0.183233
0.184596
0.186353
0.188285
0.190045
0.191432
0.192585
0.193978
0.196532
0.201499
0.206135
0.206636
0.205137
0.195985
0.177782
0.170955
0.170747
0.171455
0.173574
0.175999
0.177437
0.178086
0.178534
0.179164
0.180196
0.18162
0.183103
0.184257
0.185039
0.185744
0.186844
0.189304
0.193192
0.194921
0.194448
0.191792
0.18138
0.168641
0.165933
0.16595
0.166535
0.168203
0.170226
0.171446
0.171942
0.172235
0.17261
0.173272
0.174315
0.175551
0.17661
0.177384
0.178134
0.179333
0.181867
0.185643
0.187286
0.187113
0.185069
0.176769
0.165851
0.163169
0.163051
0.163539
0.165148
0.166788
0.167308
0.167263
0.167115
0.167047
0.167282
0.168079
0.169244
0.169999
0.170228
0.170265
0.170445
0.171371
0.1735
0.175092
0.174924
0.173747
0.168617
0.158976
0.154564
0.154229
0.154343
0.155498
0.157305
0.158086
0.158033
0.157737
0.157448
0.15731
0.157422
0.157897
0.158733
0.159555
0.160034
0.160299
0.160685
0.161714
0.163422
0.164355
0.16404
0.162612
0.157234
0.149333
0.146438
0.146031
0.146262
0.147282
0.148047
0.147941
0.147224
0.146281
0.145497
0.145017
0.144929
0.145298
0.146209
0.147404
0.148404
0.14909
0.149794
0.150844
0.152509
0.154628
0.156109
0.157118
0.156404
0.152715
0.149764
0.150353
0.152463
0.155789
0.160092
0.163769
0.165834
0.167438
0.169042
0.170729
0.172562
0.174703
0.17723
0.179994
0.18256
0.1846
0.186521
0.189118
0.192589
0.194733
0.19595
0.193981
0.188667
0.18619
0.18848
0.193056
0.20044
0.208407
0.213854
0.218289
0.22281
0.228443
0.235266
0.243947
0.254599
0.266807
0.280825
0.298036
0.31825
0.337085
0.355692
0.369326
0.39168
0.422892
0.459729
0.483505
0.487674
0.485663
0.483155
0.479992
0.479459
0.481381
0.482203
0.482131
0.482951
0.497638
0.554803
0.670819
0.858965
1.07485
1.25941
1.40702
1.49888
1.52114
1.51229
1.49282
1.50119
1.52668
1.5782
1.62207
1.63247
1.62737
1.60945
1.60649
1.61561
1.64061
1.66942
1.67719
1.67521
1.66166
1.65058
1.65162
1.65935
1.67695
1.68547
41.4146
0.159287
0.242446
0.283873
0.292188
0.292268
0.29335
0.291788
0.287735
0.284059
0.274384
0.238404
0.175165
0.161001
0.161883
0.167046
0.174717
0.182773
0.19053
0.197854
0.204711
0.211449
0.218631
0.227091
0.237511
0.24978
0.26105
0.266163
0.266036
0.263569
0.249344
0.200803
0.170843
0.169651
0.171733
0.176461
0.180907
0.184559
0.188062
0.191643
0.195146
0.198458
0.201663
0.205008
0.208607
0.212445
0.216668
0.222086
0.230543
0.238029
0.23772
0.233048
0.208026
0.177422
0.173109
0.173522
0.176209
0.179744
0.182289
0.184049
0.185615
0.187242
0.189003
0.190924
0.193051
0.195388
0.197788
0.200105
0.202504
0.2057
0.21153
0.217353
0.217307
0.214653
0.199867
0.177528
0.17249
0.172753
0.174404
0.177338
0.179783
0.181193
0.182152
0.18316
0.184483
0.186157
0.188004
0.18974
0.191177
0.19241
0.193806
0.196193
0.201003
0.205774
0.206167
0.20473
0.196103
0.17796
0.170648
0.170501
0.171135
0.173207
0.17562
0.177059
0.177705
0.17814
0.178737
0.179705
0.181022
0.182394
0.183461
0.18417
0.184798
0.185828
0.188251
0.19245
0.194737
0.194534
0.192393
0.18294
0.169636
0.166313
0.166176
0.166724
0.16837
0.170378
0.171573
0.172009
0.172219
0.172484
0.173041
0.174016
0.175235
0.176282
0.177041
0.177789
0.17901
0.181562
0.185217
0.186683
0.186592
0.184527
0.176092
0.165296
0.162685
0.162377
0.162722
0.164066
0.165576
0.166152
0.166174
0.16612
0.166195
0.166642
0.167704
0.169168
0.170244
0.170643
0.170771
0.171048
0.172095
0.174343
0.176095
0.17601
0.174948
0.16988
0.159953
0.155263
0.154882
0.1549
0.155877
0.157491
0.158167
0.15805
0.157639
0.157251
0.157042
0.157129
0.157586
0.158457
0.159339
0.15988
0.160223
0.160723
0.161904
0.163736
0.164724
0.164385
0.162911
0.157389
0.149287
0.146346
0.145936
0.146133
0.147075
0.147772
0.147597
0.146826
0.14589
0.145173
0.144703
0.144658
0.145089
0.14606
0.147275
0.148244
0.148921
0.149631
0.150747
0.152619
0.154919
0.156509
0.157527
0.156695
0.152573
0.149336
0.149827
0.1518
0.154959
0.159089
0.162617
0.164599
0.166202
0.16786
0.169699
0.171791
0.174218
0.177019
0.179882
0.182185
0.183772
0.185317
0.187638
0.191158
0.193733
0.195208
0.193728
0.188827
0.186142
0.188281
0.192743
0.200182
0.208252
0.213645
0.21769
0.22114
0.225525
0.230943
0.237997
0.24701
0.257836
0.270566
0.286336
0.305829
0.327256
0.350656
0.37319
0.405014
0.448069
0.499569
0.534959
0.543565
0.541441
0.539154
0.536278
0.534891
0.531476
0.523628
0.515739
0.505801
0.510033
0.553777
0.65014
0.813877
1.00628
1.17443
1.30978
1.3988
1.42661
1.42867
1.42797
1.4528
1.49695
1.56766
1.62477
1.63972
1.63189
1.60758
1.60182
1.61165
1.64016
1.67287
1.6818
1.67951
1.66356
1.64963
1.65062
1.65859
1.67742
1.68639
41.4105
0.164322
0.242494
0.284111
0.293136
0.29361
0.294801
0.292636
0.28817
0.284729
0.275502
0.239334
0.175962
0.161956
0.162419
0.167219
0.174608
0.182573
0.19044
0.197942
0.204961
0.211725
0.218815
0.227082
0.2373
0.249454
0.260761
0.26623
0.266455
0.26428
0.250129
0.201447
0.171474
0.170248
0.172203
0.176742
0.180981
0.184469
0.187897
0.19152
0.195124
0.198535
0.201806
0.205135
0.208729
0.212573
0.216847
0.222331
0.230809
0.238325
0.238031
0.233754
0.20936
0.178505
0.173888
0.174189
0.176651
0.179939
0.18236
0.1841
0.185723
0.187438
0.18929
0.191298
0.193486
0.195834
0.198202
0.200464
0.202787
0.205844
0.211481
0.217097
0.216883
0.214104
0.199259
0.177248
0.172376
0.172789
0.17447
0.177343
0.179712
0.181109
0.182101
0.183145
0.184472
0.186129
0.187962
0.189697
0.191143
0.192383
0.19374
0.195922
0.200475
0.205359
0.205777
0.204356
0.196242
0.178163
0.170239
0.170064
0.170654
0.172654
0.175053
0.176493
0.177112
0.177491
0.178011
0.178893
0.180141
0.181484
0.182597
0.183399
0.184113
0.185172
0.187541
0.19183
0.194533
0.194539
0.192798
0.184257
0.170719
0.166715
0.166452
0.166968
0.168618
0.170668
0.17183
0.172181
0.172311
0.172488
0.172948
0.173844
0.175013
0.176036
0.176778
0.177496
0.178714
0.18123
0.184604
0.18582
0.185746
0.183604
0.175035
0.164414
0.161884
0.161468
0.161685
0.162825
0.164284
0.164975
0.165099
0.165146
0.165356
0.165986
0.167209
0.168844
0.170166
0.170773
0.171024
0.171389
0.172485
0.174732
0.176557
0.176543
0.175647
0.170797
0.160871
0.156008
0.15561
0.155545
0.156304
0.157605
0.158132
0.157959
0.157482
0.157047
0.156782
0.156852
0.157366
0.158333
0.159286
0.159866
0.160244
0.160811
0.162061
0.163858
0.164821
0.164469
0.162915
0.157212
0.149015
0.146092
0.145673
0.145835
0.146711
0.147387
0.147245
0.146537
0.145747
0.145129
0.144704
0.144704
0.14518
0.146167
0.14731
0.148157
0.148769
0.149476
0.150664
0.152693
0.155129
0.156749
0.157718
0.156772
0.152178
0.148644
0.149059
0.150894
0.153892
0.15784
0.161204
0.163085
0.16462
0.166239
0.168102
0.170361
0.173044
0.176038
0.178942
0.181084
0.182609
0.18417
0.18648
0.190099
0.193176
0.194881
0.193826
0.189238
0.186327
0.188261
0.192541
0.199865
0.207772
0.212856
0.21636
0.219051
0.222281
0.22648
0.232006
0.239401
0.248536
0.259573
0.273593
0.292153
0.315353
0.342388
0.373146
0.41107
0.462898
0.526198
0.575426
0.593347
0.595503
0.597812
0.601713
0.603469
0.594984
0.576742
0.557278
0.533926
0.531384
0.558903
0.63161
0.756801
0.910444
1.05436
1.17712
1.26469
1.30329
1.32129
1.34143
1.38547
1.45147
1.54453
1.62258
1.64652
1.64149
1.61161
1.59999
1.6083
1.63609
1.67216
1.68397
1.68266
1.66738
1.65116
1.65128
1.65836
1.67679
1.6863
41.4195
0.162478
0.242445
0.284446
0.293672
0.294302
0.295369
0.292725
0.28812
0.285027
0.276368
0.240857
0.177126
0.162684
0.16276
0.167266
0.174434
0.182304
0.190269
0.198022
0.205312
0.212259
0.219353
0.227454
0.23747
0.24943
0.260842
0.266699
0.267355
0.26527
0.25062
0.201115
0.171533
0.170344
0.172448
0.177053
0.181239
0.184604
0.187885
0.191396
0.195008
0.198446
0.201718
0.205029
0.20856
0.212356
0.216631
0.222163
0.23079
0.238598
0.238491
0.234536
0.210597
0.179273
0.174334
0.174548
0.17689
0.180076
0.182397
0.184074
0.185682
0.187446
0.189393
0.191515
0.193816
0.196246
0.19862
0.200772
0.202913
0.2059
0.211531
0.217068
0.216796
0.21395
0.198944
0.17703
0.172298
0.172806
0.174487
0.177298
0.179579
0.180925
0.181922
0.183009
0.184395
0.186115
0.188017
0.189794
0.191263
0.192486
0.19374
0.195716
0.200039
0.20499
0.205512
0.204143
0.196471
0.178397
0.169792
0.169544
0.170081
0.171999
0.174366
0.175785
0.176358
0.176678
0.177143
0.178013
0.179339
0.180858
0.182144
0.18305
0.183789
0.184817
0.187048
0.191271
0.194247
0.194385
0.192952
0.185249
0.171719
0.16703
0.166655
0.167102
0.168749
0.17094
0.172216
0.172557
0.172649
0.172776
0.173152
0.173919
0.174961
0.175912
0.176595
0.177259
0.178392
0.180779
0.183791
0.184738
0.184596
0.18232
0.173671
0.163333
0.160918
0.160469
0.160607
0.16165
0.163154
0.163988
0.164209
0.16434
0.16465
0.165364
0.166633
0.168325
0.169799
0.17061
0.170976
0.171412
0.172546
0.174749
0.176546
0.176604
0.175814
0.171099
0.161277
0.156383
0.155995
0.155896
0.156523
0.157579
0.157979
0.157734
0.157197
0.156741
0.156476
0.156607
0.157233
0.158304
0.159343
0.159986
0.16039
0.160953
0.162184
0.163856
0.164648
0.164242
0.162578
0.156636
0.148451
0.145684
0.145267
0.145402
0.146263
0.147009
0.14701
0.146469
0.145819
0.145286
0.144947
0.145022
0.145542
0.146496
0.147494
0.148209
0.148752
0.149418
0.150602
0.152726
0.155265
0.156806
0.157654
0.156509
0.151433
0.147732
0.148097
0.149811
0.152653
0.15641
0.159611
0.161391
0.162812
0.164302
0.165995
0.168127
0.170816
0.17391
0.176919
0.179349
0.181233
0.183067
0.18555
0.189287
0.192891
0.194813
0.194279
0.190099
0.186937
0.188661
0.19274
0.199734
0.207209
0.211798
0.214741
0.216869
0.219397
0.222765
0.227164
0.233105
0.240726
0.250076
0.262312
0.27964
0.303711
0.333333
0.369998
0.412274
0.468542
0.536125
0.598295
0.626856
0.637453
0.645688
0.660162
0.668855
0.659551
0.636004
0.60184
0.568568
0.561121
0.57509
0.623266
0.708029
0.815107
0.927306
1.03659
1.12347
1.17389
1.20908
1.24952
1.31248
1.39723
1.50875
1.61287
1.64844
1.65067
1.62028
1.6005
1.60691
1.63144
1.66933
1.68491
1.68493
1.67185
1.65414
1.65292
1.6586
1.67561
1.68551
41.4375
0.154107
0.241802
0.284511
0.293651
0.294181
0.295117
0.292257
0.287742
0.284906
0.276795
0.242172
0.178283
0.163119
0.162927
0.167211
0.174208
0.181988
0.190042
0.198071
0.20576
0.212997
0.220196
0.228164
0.237904
0.249652
0.261127
0.267178
0.268273
0.26616
0.250642
0.200105
0.171191
0.170099
0.172492
0.177328
0.181624
0.184945
0.188049
0.191346
0.194795
0.198199
0.201487
0.204814
0.208321
0.212063
0.216269
0.221828
0.230695
0.238949
0.239134
0.235375
0.211664
0.17971
0.174487
0.17478
0.177149
0.180331
0.182598
0.184189
0.185731
0.187497
0.189524
0.191777
0.194201
0.196671
0.198965
0.200958
0.20293
0.205941
0.211729
0.217301
0.217045
0.214183
0.198952
0.176886
0.172228
0.172731
0.17439
0.177152
0.179351
0.180626
0.181599
0.182723
0.184198
0.186031
0.188055
0.189978
0.19155
0.192745
0.193817
0.195561
0.199682
0.204685
0.205425
0.204183
0.196989
0.178983
0.169549
0.169134
0.169561
0.171387
0.173776
0.175256
0.175856
0.176189
0.176685
0.177635
0.179105
0.180799
0.182216
0.183152
0.183821
0.184676
0.186686
0.190722
0.193884
0.194115
0.192914
0.185947
0.172574
0.167205
0.166732
0.167077
0.168665
0.170944
0.17239
0.172851
0.173017
0.173214
0.173636
0.174403
0.175386
0.176209
0.176732
0.177234
0.178188
0.180302
0.182863
0.18354
0.183254
0.180811
0.172196
0.162226
0.159965
0.159569
0.159717
0.160771
0.16236
0.1633
0.163571
0.163729
0.164048
0.164757
0.166013
0.167707
0.169267
0.170191
0.170677
0.171208
0.172386
0.174506
0.17613
0.176153
0.175341
0.170626
0.160985
0.15623
0.155853
0.155728
0.156398
0.157503
0.15791
0.157596
0.156985
0.156536
0.156351
0.156543
0.157221
0.158382
0.159515
0.160189
0.160577
0.161088
0.162214
0.163607
0.164132
0.163679
0.161779
0.155503
0.147564
0.145116
0.144733
0.144898
0.145865
0.146885
0.147095
0.146681
0.146106
0.145673
0.145471
0.145606
0.146129
0.146996
0.147852
0.148449
0.148914
0.149527
0.150687
0.152851
0.155336
0.156651
0.157317
0.155866
0.150404
0.146678
0.147044
0.148625
0.151283
0.154808
0.157829
0.159489
0.160781
0.162076
0.163547
0.165372
0.167772
0.170805
0.174181
0.177299
0.179791
0.18204
0.184727
0.188495
0.192688
0.194875
0.1951
0.191508
0.188
0.18941
0.193144
0.199658
0.206687
0.210831
0.213355
0.215118
0.217335
0.220262
0.224109
0.229225
0.235632
0.243574
0.254291
0.270234
0.294009
0.325189
0.365146
0.410741
0.469389
0.537435
0.605701
0.642006
0.660283
0.673781
0.69444
0.711172
0.706739
0.686109
0.646263
0.612361
0.601498
0.607126
0.632419
0.683297
0.750039
0.831293
0.923981
1.00719
1.065
1.11221
1.16659
1.24504
1.34498
1.46963
1.59431
1.6464
1.65651
1.62953
1.60306
1.60752
1.62847
1.66618
1.68523
1.68646
1.67569
1.65723
1.65448
1.65895
1.67405
1.68426
41.4561
0.145235
0.240884
0.284503
0.293369
0.293772
0.294239
0.291282
0.287133
0.284636
0.276905
0.243114
0.179257
0.163367
0.163007
0.167121
0.173968
0.18164
0.189743
0.198039
0.20617
0.213781
0.221111
0.228936
0.238412
0.250008
0.261607
0.267625
0.269263
0.26702
0.250248
0.19852
0.170456
0.16948
0.172253
0.177419
0.181966
0.185343
0.188306
0.191351
0.194546
0.197809
0.201102
0.20452
0.208124
0.211874
0.216031
0.221592
0.230683
0.239404
0.239936
0.236257
0.212591
0.179961
0.174475
0.174847
0.177351
0.180692
0.183006
0.184526
0.185967
0.187681
0.189748
0.19211
0.19465
0.197155
0.199358
0.201168
0.202969
0.206042
0.212068
0.217693
0.217611
0.214747
0.19919
0.176741
0.172085
0.172498
0.174124
0.176861
0.179016
0.180231
0.181152
0.182267
0.183812
0.185797
0.18805
0.190222
0.191913
0.193027
0.193904
0.195448
0.199375
0.204465
0.205484
0.204477
0.197901
0.180161
0.169774
0.169138
0.169455
0.171176
0.173592
0.175158
0.175811
0.176185
0.176723
0.177724
0.17925
0.181001
0.182459
0.183363
0.183963
0.184702
0.186461
0.190205
0.193457
0.193772
0.192747
0.186391
0.173272
0.167373
0.166846
0.167094
0.168572
0.170807
0.172293
0.172865
0.173183
0.173563
0.174175
0.175131
0.176201
0.176942
0.177296
0.17755
0.178195
0.179881
0.181966
0.182414
0.181959
0.179397
0.171009
0.161412
0.159266
0.158972
0.159172
0.160269
0.161925
0.162955
0.163228
0.163331
0.163583
0.16423
0.165437
0.167088
0.168673
0.169686
0.170255
0.170851
0.172048
0.174047
0.175388
0.175351
0.174451
0.169672
0.160245
0.155723
0.155349
0.15522
0.15601
0.157386
0.157967
0.157745
0.157184
0.156737
0.156564
0.156753
0.157441
0.158599
0.159671
0.160234
0.16052
0.160952
0.162013
0.163156
0.163343
0.162752
0.160516
0.154113
0.146726
0.144644
0.144333
0.144578
0.1457
0.146979
0.147344
0.147048
0.146597
0.14629
0.146213
0.146382
0.146879
0.147646
0.148389
0.148906
0.149303
0.149859
0.150975
0.153031
0.155258
0.156214
0.156643
0.154952
0.149154
0.145515
0.145876
0.147305
0.149803
0.153138
0.155917
0.157416
0.15857
0.159642
0.160936
0.16249
0.164606
0.167517
0.171119
0.1748
0.177937
0.18066
0.183613
0.187526
0.192322
0.194998
0.196085
0.193186
0.189261
0.190103
0.193413
0.199339
0.206026
0.210062
0.212484
0.214146
0.216201
0.218883
0.222492
0.227306
0.233172
0.240365
0.250024
0.264676
0.287414
0.318886
0.359744
0.407277
0.46714
0.534863
0.605172
0.647814
0.667727
0.681263
0.701028
0.720333
0.725745
0.717048
0.690283
0.665912
0.652279
0.649589
0.658921
0.684775
0.728446
0.787379
0.860096
0.933183
0.991005
1.04248
1.10267
1.19067
1.30103
1.43478
1.57293
1.64181
1.65892
1.63628
1.60631
1.60891
1.62738
1.66447
1.68587
1.6878
1.6785
1.65946
1.65504
1.65868
1.67217
1.68308
41.4633
0.144244
0.239417
0.284293
0.292954
0.293287
0.293026
0.290301
0.28675
0.28457
0.276953
0.243501
0.179706
0.16337
0.162983
0.167026
0.17379
0.181378
0.189486
0.197968
0.206432
0.214391
0.221808
0.229472
0.238785
0.250367
0.262111
0.267916
0.269956
0.267447
0.249392
0.196821
0.169517
0.168566
0.171766
0.177382
0.18227
0.185809
0.188706
0.191483
0.194377
0.197434
0.200716
0.204264
0.208011
0.211875
0.216054
0.221614
0.230852
0.239969
0.240842
0.237143
0.213387
0.180019
0.174309
0.174771
0.177466
0.181089
0.183579
0.185115
0.18648
0.188118
0.190174
0.192587
0.195191
0.197719
0.199862
0.201547
0.203231
0.206349
0.212548
0.218188
0.218276
0.215409
0.199556
0.176605
0.171847
0.172124
0.173695
0.176445
0.178637
0.17986
0.180751
0.181859
0.183461
0.185603
0.188062
0.190383
0.192107
0.193136
0.193852
0.195287
0.199093
0.204304
0.205611
0.204923
0.198972
0.181668
0.170288
0.169361
0.16959
0.171186
0.173578
0.175215
0.175941
0.176379
0.176996
0.1781
0.17972
0.181524
0.182956
0.18376
0.18417
0.184688
0.186201
0.189647
0.192887
0.193252
0.192322
0.18643
0.173638
0.167286
0.166734
0.16693
0.16835
0.170585
0.172197
0.172901
0.173294
0.173774
0.174586
0.175822
0.177134
0.177922
0.17817
0.178204
0.178464
0.179607
0.181224
0.181511
0.180912
0.178347
0.170361
0.161054
0.158896
0.158684
0.158914
0.160046
0.161766
0.16288
0.163172
0.163242
0.16344
0.164008
0.165113
0.166686
0.168257
0.169297
0.169867
0.170441
0.171595
0.173399
0.174412
0.174294
0.17324
0.168437
0.159325
0.155046
0.154694
0.154629
0.155532
0.157228
0.158104
0.158105
0.157747
0.157411
0.157279
0.157444
0.158017
0.158952
0.15981
0.160246
0.160414
0.16072
0.161563
0.162409
0.16232
0.1616
0.159262
0.15319
0.146385
0.144488
0.144213
0.14449
0.14566
0.147134
0.147684
0.14755
0.147259
0.147065
0.147072
0.147273
0.147756
0.148479
0.149164
0.149619
0.149949
0.150411
0.151393
0.153197
0.154994
0.155662
0.155888
0.153869
0.147773
0.144316
0.144644
0.145883
0.148195
0.151334
0.153867
0.155182
0.156199
0.157136
0.15834
0.159779
0.161765
0.164583
0.1682
0.172107
0.175672
0.178862
0.182204
0.186457
0.191755
0.195115
0.196919
0.1946
0.19031
0.190386
0.193304
0.198824
0.205456
0.209466
0.211811
0.213482
0.215646
0.218389
0.22223
0.227243
0.232939
0.239626
0.248666
0.26252
0.284162
0.314699
0.35475
0.401842
0.460644
0.527601
0.597757
0.644802
0.665954
0.679933
0.698307
0.719142
0.731622
0.737015
0.729938
0.716717
0.706595
0.700415
0.700158
0.710587
0.736298
0.779249
0.839838
0.898764
0.949587
0.998973
1.0616
1.15374
1.26915
1.40855
1.55591
1.63715
1.6593
1.63979
1.60844
1.60986
1.62735
1.66401
1.68654
1.68871
1.68001
1.66047
1.65485
1.658
1.6707
1.68253
41.4565
0.152972
0.238162
0.283591
0.292767
0.292938
0.292059
0.289896
0.286988
0.28496
0.276962
0.243023
0.179516
0.163283
0.16298
0.166974
0.173706
0.181274
0.189381
0.19792
0.206568
0.21469
0.222094
0.229638
0.238816
0.25037
0.2623
0.267872
0.2702
0.267404
0.248415
0.19562
0.168679
0.167623
0.171162
0.177199
0.182501
0.186293
0.189156
0.191695
0.194319
0.197234
0.200509
0.20418
0.208126
0.212142
0.216389
0.22194
0.231172
0.240579
0.241702
0.237865
0.213983
0.179987
0.174064
0.174706
0.177626
0.181493
0.184144
0.185755
0.187118
0.188724
0.190754
0.193163
0.195764
0.198276
0.20039
0.202031
0.203694
0.206837
0.21305
0.218641
0.218975
0.216101
0.200115
0.176615
0.171556
0.171687
0.173218
0.176027
0.178345
0.179626
0.180541
0.181657
0.183288
0.185499
0.188012
0.190376
0.192139
0.193182
0.193896
0.195283
0.198956
0.204249
0.205829
0.20536
0.199945
0.183252
0.170894
0.169652
0.16981
0.171281
0.173649
0.175377
0.176198
0.176749
0.177511
0.178723
0.180408
0.182195
0.183511
0.184111
0.184291
0.18462
0.185925
0.189101
0.192286
0.192676
0.191812
0.186275
0.173774
0.167135
0.166568
0.166726
0.168105
0.17032
0.171954
0.172682
0.173115
0.173712
0.17477
0.176349
0.177954
0.17884
0.179003
0.178911
0.178917
0.179563
0.180759
0.180964
0.180286
0.177801
0.170202
0.161001
0.158757
0.158594
0.158847
0.160005
0.161761
0.162961
0.163307
0.163388
0.163568
0.16407
0.165065
0.16655
0.168085
0.169099
0.169622
0.170132
0.171195
0.172804
0.173571
0.173365
0.172198
0.167458
0.158706
0.154668
0.154323
0.154345
0.155341
0.157179
0.158298
0.15849
0.158401
0.158319
0.158366
0.158567
0.158953
0.159503
0.159978
0.160133
0.160116
0.160249
0.160863
0.161566
0.161428
0.160786
0.158667
0.152957
0.146423
0.144556
0.144273
0.144527
0.145652
0.147284
0.148085
0.148113
0.14797
0.147866
0.14792
0.148161
0.148673
0.149425
0.150138
0.150577
0.150834
0.15115
0.151907
0.153417
0.154759
0.155117
0.155106
0.15271
0.146446
0.143229
0.143496
0.144522
0.146626
0.149564
0.151867
0.153
0.153883
0.154729
0.155897
0.15732
0.159264
0.161999
0.165534
0.169475
0.173282
0.176845
0.180594
0.185288
0.191067
0.195139
0.197454
0.195571
0.190987
0.190361
0.193007
0.198227
0.204776
0.208912
0.211287
0.213139
0.215558
0.218501
0.22264
0.228074
0.234075
0.240635
0.249313
0.262551
0.283228
0.312419
0.350628
0.395129
0.450531
0.51415
0.580669
0.626483
0.647709
0.662053
0.678731
0.700288
0.722284
0.742357
0.759311
0.763927
0.761036
0.761468
0.759655
0.759312
0.769043
0.79525
0.837974
0.884215
0.928314
0.976744
1.04075
1.13352
1.25046
1.39342
1.54736
1.63441
1.65852
1.6388
1.60838
1.61012
1.62761
1.6642
1.68677
1.68896
1.68027
1.66076
1.6547
1.65775
1.67023
1.68233
41.4486
0.162852
0.23767
0.282367
0.292592
0.292743
0.291664