/*--------------------------------*- C++ -*----------------------------------*\
| =========                 |                                                 |
| \\      /  F ield         | OpenFOAM: The Open Source CFD Toolbox           |
|  \\    /   O peration     | Version:  2306                                  |
|   \\  /    A nd           | Website:  www.openfoam.com                      |
|    \\/     M anipulation  |                                                 |
\*---------------------------------------------------------------------------*/
FoamFile
{
    version     2.0;
    format      ascii;
    arch        "LSB;label=32;scalar=64";
    class       volScalarField;
    location    "0.14";
    object      T;
}
// * * * * * * * * * * * * * * * * * * * * * * * * * * * * * * * * * * * * * //

dimensions      [0 0 0 1 0 0 0];

internalField   nonuniform List<scalar> 
6000
(
3324.99
1620.78
2169.81
2547.95
2624.96
2634.56
2644.41
2649.03
2654.61
2664.09
2655.08
2552.74
2258.06
2143.6
2163.08
2208.02
2265.73
2323.18
2377.23
2429.46
2482.29
2536.92
2594.49
2657.05
2727.82
2808.04
2884.27
2931.71
2951.85
2966.4
2928.55
2694.16
2507.73
2512.55
2544.26
2590.2
2633.42
2669.2
2699.59
2726.89
2753.29
2780.43
2809.47
2840.49
2872.56
2905.03
2940.02
2985.08
3051.07
3108.25
3120.6
3105.38
2969.09
2779.15
2755.17
2768.56
2800.88
2838.42
2869.15
2892.79
2912.26
2930.61
2950.12
2971.78
2995.23
3018.94
3041.27
3062.35
3085.36
3118.42
3170.02
3221.32
3238.46
3230.3
3148.93
3001.53
2964.64
2970.52
2990.89
3019.5
3044.2
3060.72
3073.14
3086.03
3101.93
3120.99
3141.18
3159.57
3174.44
3186.99
3201.28
3225.55
3266.88
3304.44
3319.55
3314.92
3258.64
3141.03
3098.63
3100.86
3114.58
3137.58
3162.68
3181.39
3194.44
3205.79
3218.31
3233.51
3251.29
3269.26
3284.58
3297.55
3311.12
3329.66
3358.99
3387.91
3396.52
3397.35
3378.66
3295.13
3220.25
3213.54
3224.21
3237.46
3258.03
3281.41
3298.96
3311.09
3322.24
3334.69
3349.09
3365.52
3382.5
3397.74
3411.1
3424.97
3443.04
3471.57
3511.98
3537.54
3544.23
3542.44
3492.65
3411.24
3396.11
3409.3
3429.17
3457.18
3483.97
3498.65
3507.72
3516.4
3525.79
3536.84
3549.88
3563.36
3575.67
3585.85
3596.67
3610.85
3630.83
3659.7
3684.32
3693.39
3696.75
3668.07
3598.2
3570.84
3578.59
3594.24
3618.7
3650.07
3674.39
3689.64
3702.61
3715.89
3730.08
3745.68
3763.28
3782.75
3801.75
3818.39
3834.25
3852.3
3876.69
3908.07
3932.79
3946.32
3950.89
3919.9
3862.37
3853.66
3869.87
3896.25
3929.69
3961.29
3983.96
4000.05
4013.65
4025.81
4037.27
4048.55
4061.68
4075.27
4087.35
4091.96
4089.38
4080.98
4069.66
4058.8
4048.38
4026.13
3989.77
3931.15
3842.97
3760.52
3711.83
3676.03
3652.05
3637.44
3614.79
3575.91
3534.05
3493.01
3455.56
3421.94
3393.26
3371.39
3356.54
3344.93
3332.11
3318.16
3305.09
3289.06
3255.67
3208.49
3130.67
3027.89
2953.03
2906.83
2864.02
2827.74
2785.88
2726.1
2656.26
2584.13
2512.35
2442.52
2370.14
2291.3
2208.27
2125.87
2048.72
1970.93
1866.84
1749.95
1626.84
1543.02
1487.69
1456.26
1436.03
1420.35
1411.53
1409.09
1413.22
1426.13
1442.37
1446.91
1433.25
1380.52
1257.17
1058.97
830.732
636.339
504.255
432.95
405.752
397.445
391.938
386.008
379.073
375.457
373.944
374.218
375.414
374.269
371.073
366.907
363.102
361.052
359.977
360.03
360.212
359.453
358.299
357.132
356.558
356.269
356.443
356.551
3324.75
1606.96
2167.99
2551.13
2628.1
2638.45
2648.6
2653.22
2657.37
2665.69
2655.67
2548.39
2251.87
2143.52
2163.12
2208.02
2265.7
2323.47
2377.86
2430.39
2483.17
2537.62
2594.8
2657
2727.17
2806.77
2883.03
2930.49
2950.33
2964.76
2927.67
2695.26
2509.12
2513.89
2544.78
2589.74
2632.16
2667.66
2698.48
2726.7
2754.16
2782.39
2812.45
2844.3
2876.83
2909.21
2943.87
2988.3
3053.25
3109.43
3121.34
3106.97
2972.15
2782.88
2759.78
2773.51
2805.36
2841.99
2871.64
2894.33
2913.36
2931.6
2951.15
2972.77
2996.05
3019.64
3042.08
3063.51
3086.89
3119.52
3170.44
3219.92
3235.22
3227.77
3146.91
2999.64
2963.82
2970.45
2990.65
3018.98
3043.45
3059.82
3072.19
3085.01
3100.7
3119.35
3139.01
3156.93
3171.68
3184.55
3199.43
3224.08
3265.5
3303.3
3317.39
3313.27
3258.44
3140.54
3097.64
3100.38
3114.14
3137.04
3162.04
3180.48
3193.18
3204.16
3216.29
3231.04
3248.47
3266.34
3281.7
3294.54
3307.78
3325.73
3354.1
3384.76
3396.45
3398.2
3382.48
3302.24
3223.01
3214.52
3224.43
3237.57
3258.01
3281.38
3298.94
3311.06
3322.19
3334.42
3348.53
3364.81
3381.78
3397.16
3410.71
3424.72
3442.82
3471.42
3511.81
3536.91
3543.97
3541.97
3491.91
3411.13
3396.08
3408.39
3426.95
3453.91
3480.06
3494.66
3503.81
3512.54
3522.11
3533.96
3548.52
3564.06
3577.75
3588.91
3600.49
3615
3635.01
3664.01
3688.99
3698.35
3702.02
3673.49
3602.73
3574.41
3582.2
3597.66
3621.7
3652.48
3675.77
3689.87
3701.85
3714.24
3727.6
3742.57
3760.27
3780.54
3800.48
3817.87
3834.22
3852.69
3877.45
3909.18
3934.46
3947.66
3952.78
3922.13
3863.33
3853.47
3869.37
3895.61
3928.75
3959.26
3980.66
3996.15
4009.16
4020.98
4032.68
4044.54
4058.28
4072.52
4085.26
4090.81
4089.39
4082.92
4073.5
4064.08
4053.54
4030.16
3993.11
3934.31
3845.81
3762.62
3713.3
3676.97
3652.15
3636.67
3613.75
3575.3
3533.87
3494.26
3458.36
3425.43
3397
3374.95
3359.39
3346.37
3331.37
3314.99
3300.53
3284.45
3251.7
3205.38
3129.57
3029.51
2956.06
2910.9
2869.39
2834.5
2792.84
2731.59
2660.83
2588.09
2514.96
2443.65
2372.18
2295.59
2213.81
2131.64
2053.45
1972.65
1866.35
1745.62
1615.51
1523.41
1463.37
1430.63
1410.25
1394.59
1386.8
1386.18
1393.2
1409.75
1429.05
1435.38
1423.5
1373.88
1254.9
1061.33
834.341
638.81
505.525
433.917
406.77
398.339
392.809
386.939
380.149
376.359
374.507
374.438
375.249
373.71
370.354
366.252
362.884
361.272
360.472
360.618
360.465
359.463
358.038
356.83
356.334
356.138
356.489
356.647
3324.76
1588.22
2162.76
2556.01
2633.76
2645.27
2655.22
2658.3
2659.81
2666.51
2656.12
2542.2
2242.93
2144.17
2163.63
2208.23
2265.52
2323.42
2378.61
2431.71
2484.46
2538.66
2595.61
2657.86
2727.63
2806.35
2882.83
2929.82
2948.02
2961.38
2924.91
2695.31
2510.5
2515.38
2545.04
2588.58
2629.88
2665.05
2696.85
2726.91
2755.97
2784.9
2814.97
2846.72
2879.63
2912.64
2947.61
2991.55
3054.77
3109.42
3120.73
3108.53
2977.01
2788.66
2766.32
2780.14
2810.87
2846.06
2874.18
2895.84
2914.74
2933.32
2953.07
2974.52
2997.44
3020.93
3043.81
3066.03
3089.97
3121.55
3170.78
3217.96
3230.66
3224.93
3144.65
2997.94
2963.93
2971.13
2990.52
3018.1
3042.23
3058.5
3070.92
3083.67
3099.04
3117.13
3136.25
3153.97
3168.99
3182.35
3197.61
3222.26
3263.55
3301.85
3313.99
3310.96
3258.01
3139.63
3096.13
3100.07
3113.79
3136.49
3161.41
3179.66
3192.12
3202.94
3214.88
3229.4
3246.44
3263.72
3278.58
3291.25
3304.38
3321.38
3348.05
3381
3396.08
3398.88
3387.46
3313.78
3228.47
3216.9
3225.61
3238.8
3259.29
3282.76
3300.53
3312.59
3323.31
3334.84
3348.31
3364.28
3381.39
3397.07
3410.87
3425.06
3443.38
3472.49
3512.73
3536.93
3544.59
3542.11
3491.22
3410.73
3395.57
3406.35
3423.09
3448.63
3474.35
3489.27
3498.78
3507.83
3517.85
3530.25
3545.98
3563.93
3579.62
3591.92
3604.17
3618.91
3639.56
3669.94
3695.9
3705.98
3710.15
3681.69
3609.4
3579.58
3587.29
3602.58
3626.19
3656.52
3678.09
3690.48
3700.75
3711.53
3723.7
3737.8
3755.07
3775.79
3796.72
3814.86
3831.61
3850.38
3875.71
3908.53
3935.18
3948.95
3954.99
3924.93
3864.54
3852.59
3867.99
3893.6
3925.97
3955.67
3976.15
3990.63
4002.21
4012.91
4024.27
4037.04
4051.87
4067.57
4082.17
4089.5
4089.45
4084.9
4077.5
4070.25
4061
4037.49
4000.47
3940.87
3850.67
3766.54
3717.06
3680.1
3654.02
3637
3613.44
3575.07
3534.25
3496.6
3462.09
3431.41
3404.94
3383.6
3367.13
3351.74
3333.92
3314.3
3296.65
3279.27
3246.87
3201.44
3128.81
3034.68
2962.59
2918.07
2877.65
2845.07
2806.12
2745.27
2673.85
2600.46
2526.85
2454.42
2383.76
2311.65
2234.86
2155.09
2075.48
1988.06
1873.83
1740.1
1589.98
1474.05
1396.43
1354.36
1331.14
1316.23
1310.95
1314.87
1329.97
1355.89
1383.69
1397.06
1390.28
1349.72
1243.1
1063.69
844.426
648.94
512.883
439.573
411.684
402.791
396.978
390.776
383.839
379.755
377.22
376.495
376.17
373.343
369.392
365.177
362.395
361.05
360.859
361.415
360.976
359.619
357.823
356.418
355.922
355.85
356.464
356.737
3324.81
1605.97
2160.89
2558.19
2640.28
2653.24
2663.25
2663.63
2661.57
2667.27
2656.73
2536.34
2235.81
2146.18
2164.93
2208.69
2265.19
2323.32
2379.35
2433.27
2486.17
2540.03
2596.49
2658.28
2727.56
2805.59
2882.13
2929.54
2947.07
2959.47
2923.42
2696.84
2512.56
2516.78
2545.05
2587
2626.89
2661.66
2694.43
2726.44
2757.22
2787.07
2817.22
2848.82
2881.5
2914.62
2950.05
2993.97
3055.88
3109.14
3119.9
3110.43
2983.11
2795.61
2773.77
2787.13
2816.17
2849.68
2876.48
2897.51
2916.56
2935.68
2955.76
2977.11
2999.75
3023.23
3046.61
3069.54
3093.95
3124.6
3171.92
3216.25
3225.82
3221.79
3141.62
2996.06
2963.69
2971.34
2990.13
3017.1
3040.89
3057.05
3069.55
3082.25
3097.25
3114.79
3133.43
3150.89
3165.9
3179.59
3195.43
3219.7
3260.56
3299.08
3309.59
3308.26
3258.27
3139.69
3094.34
3098.95
3112.26
3134.48
3159.14
3177.05
3189.12
3199.61
3211.32
3225.73
3242.77
3260.09
3274.91
3287.14
3299.39
3315.42
3341.53
3377.43
3396.68
3401.14
3393.54
3327.39
3236.63
3220.96
3228.16
3241.14
3261.38
3284.78
3302.38
3314.32
3324.67
3335.56
3348.42
3364.1
3381.42
3397.53
3411.58
3425.86
3444.39
3474.03
3513.91
3536.87
3545.23
3542.28
3490.02
3409.74
3395.08
3403.74
3418.91
3442.08
3466.25
3481.19
3491.25
3501.13
3512.15
3525.61
3543.17
3563.99
3581.84
3595.69
3608.52
3623.43
3644.69
3676.25
3703.47
3714.52
3719.44
3690.93
3615.94
3584.15
3591.51
3606.3
3629.1
3657.98
3677.71
3688.95
3698.28
3707.73
3718.54
3731.91
3748.68
3769.49
3791.15
3810.18
3827.74
3847.42
3873.87
3908.03
3935.65
3949.76
3956.65
3926.63
3863.78
3849.75
3864.6
3889.48
3920.93
3949.49
3968.76
3982.22
3992.58
4002.8
4014.2
4028.17
4044.62
4062.54
4079.39
4088.69
4090.02
4087.11
4081.47
4076.69
4070.45
4048.9
4012.3
3951.79
3858.62
3772.78
3723.38
3685.89
3658.6
3640.09
3615.76
3577.14
3536.88
3500.18
3467.3
3438.62
3414.74
3395.33
3378.6
3360.6
3338.39
3314.54
3293.5
3275.46
3244.38
3200.54
3132.84
3043.64
2971.85
2928.22
2889.47
2860.22
2825.66
2767.88
2697.72
2624.01
2551.63
2480.26
2411.78
2344.69
2275.08
2200.61
2120.27
2025.53
1899.24
1746.23
1571.32
1419.6
1311.35
1248.96
1214.2
1195.95
1191.35
1198.43
1221.44
1259.16
1299.2
1323.46
1325.77
1297.93
1211.94
1060.87
862.537
673.535
534.759
457.28
426.267
415.339
407.957
400.213
391.92
386.16
381.702
379.807
377.798
373.567
368.778
364.194
361.701
360.612
360.873
361.863
361.385
359.865
357.679
356.03
355.541
355.554
356.403
356.785
3324.86
1653.1
2163.7
2554.48
2645.84
2660.36
2670.53
2667.34
2661.64
2667.47
2657.63
2533.89
2232.92
2149.63
2167.16
2209.53
2264.9
2323.06
2379.94
2434.78
2487.75
2541.02
2596.99
2658.12
2726.56
2803.88
2880.41
2929.14
2948.04
2959.93
2923.6
2698.74
2514.95
2518.44
2545.4
2585.85
2624.48
2658.56
2691.69
2724.92
2757.28
2788.18
2818.24
2849.05
2881.24
2914.78
2950.91
2994.78
3055.75
3108.1
3118.59
3112.12
2989.55
2802.64
2779.95
2792.69
2820.19
2852.06
2877.82
2898.5
2917.9
2937.67
2958.28
2979.85
3002.53
3026.19
3049.98
3073.34
3097.9
3128.03
3173.36
3215.27
3222.44
3218.98
3138.58
2994.95
2963.49
2971.75
2990.35
3016.62
3039.68
3055.48
3067.97
3080.7
3095.52
3112.66
3130.9
3148.26
3163.62
3177.94
3194.05
3217.58
3257.4
3296
3305.6
3305.81
3259.65
3141.43
3092.29
3097.58
3110.66
3132.79
3157.5
3175.43
3187.45
3197.91
3209.61
3223.9
3240.54
3257.34
3271.77
3283.74
3295.69
3311.29
3336.99
3374.89
3398.24
3404.25
3399.46
3340.83
3246.76
3226.24
3232.02
3244.78
3265.01
3288.57
3306.23
3317.85
3327.56
3337.59
3349.66
3364.92
3382.24
3398.5
3412.6
3426.83
3445.41
3475.23
3514.49
3536.45
3545.41
3541.75
3487.71
3407.84
3393.8
3400.7
3414.18
3434.81
3457.3
3472.37
3482.95
3493.7
3505.88
3520.51
3539.78
3562.78
3583.16
3598.35
3611.79
3627.04
3648.53
3680.36
3708.85
3720.85
3726.69
3698.96
3621.66
3587.18
3593.95
3607.77
3629.12
3656.2
3674.43
3684.78
3693.17
3701.71
3711.84
3725.06
3741.63
3762.59
3784.76
3804.51
3823.1
3844.02
3871.95
3907.23
3935.18
3949.03
3955.53
3923.83
3858.36
3843.56
3858.06
3882.4
3913.03
3940.64
3958.86
3971.6
3981.73
3992.61
4004.59
4019.79
4037.61
4057.09
4075.38
4086.26
4088.98
4087.17
4083.58
4082.27
4080.19
4062.2
4026.86
3966.33
3869.84
3781.95
3732.62
3694.79
3666.65
3647.26
3622.11
3583.1
3543.05
3506.78
3474.86
3447.72
3425.52
3407.77
3391.12
3370.37
3343.89
3316.54
3292.96
3274.76
3246.43
3204.58
3140.69
3054.58
2982.69
2939.94
2903.5
2878.36
2848.87
2795.89
2729.53
2657.78
2588.12
2520.46
2456.52
2395.37
2332.99
2264.38
2184.83
2084.15
1946.19
1771.24
1572.45
1388.56
1246.07
1156.57
1102.91
1074.57
1065.69
1071.86
1096.59
1139.86
1187.59
1221.89
1234.47
1216.68
1157.26
1048.76
887.708
717.418
580.346
497.014
459.272
443.06
431.149
419.353
407.023
396.843
388.446
383.924
380.129
374.677
369.012
363.683
360.935
359.939
360.475
361.852
361.526
360.051
357.68
355.807
355.338
355.389
356.372
356.797
3325.07
1671.61
2165.08
2550.07
2648.87
2664.55
2674.48
2668.4
2660.83
2667.39
2659.17
2535.95
2235.14
2153.83
2169.73
2210.59
2264.69
2322.63
2380.32
2436.07
2489.51
2542.42
2597.81
2658.32
2726.22
2802.91
2878.93
2929.68
2951.14
2962.28
2925.39
2700.33
2517.12
2520.56
2546.68
2586.09
2623.69
2656.82
2689.47
2723.06
2756.03
2787.46
2817.7
2848.26
2880.36
2913.85
2950.12
2994.14
3054.86
3107.15
3117.88
3113.92
2995.7
2808.41
2783.89
2796.19
2822.63
2853.22
2878.36
2899.07
2919.06
2939.67
2961.1
2983.34
3006.37
3030.08
3053.8
3077.11
3101.54
3130.99
3175.02
3215.21
3221.29
3217.49
3135.95
2993.5
2962.91
2971.92
2990.41
3016.13
3038.32
3053.73
3066.31
3079.31
3094.31
3111.53
3129.78
3147.17
3162.75
3177.4
3193.64
3216.06
3253.94
3292.54
3302.3
3303.55
3261.19
3143.56
3089.85
3095.04
3108.1
3130.01
3154.74
3172.69
3184.49
3194.55
3205.83
3219.8
3236.29
3253.31
3268.38
3281.31
3294.06
3309.73
3334.79
3373.23
3399.85
3407.25
3404.47
3352.81
3257.9
3232.26
3236.85
3249.26
3269.57
3293.44
3310.9
3321.85
3330.89
3340.23
3351.65
3366.53
3384.01
3400.63
3415.02
3429.22
3447.7
3477.12
3514.39
3534.64
3543.72
3538.99
3482.85
3403.63
3390.18
3395.82
3407.72
3426.46
3448.14
3463.91
3475.29
3486.74
3499.7
3515.37
3535.52
3559.53
3581.91
3598.95
3613.38
3629
3650.44
3681.85
3710.9
3723.57
3730.19
3703.73
3626.51
3590.35
3596.73
3609.67
3629.01
3652.75
3669.07
3678.62
3686.45
3694.66
3704.46
3717.68
3734.76
3756.26
3778.96
3799.22
3818.37
3840.03
3868.62
3903.31
3930.57
3944.04
3949.56
3915.63
3849.07
3834.32
3848.28
3871.81
3901.56
3928.77
3946.97
3959.89
3971.66
3983.88
3996.86
4013.24
4032.21
4052.81
4071.52
4082.86
4086.89
4086.93
4086.32
4088.22
4089.9
4076.02
4042.44
3982.62
3883.58
3794.25
3745.8
3708.13
3679.6
3659.58
3633.78
3594.46
3554.22
3517.75
3485.86
3459.51
3438.41
3420.97
3403.57
3380.25
3351.49
3322.46
3297.44
3279.19
3253.77
3213.3
3152.05
3067.99
2995.75
2953.6
2918.98
2896.98
2871.64
2823.44
2762.06
2695.28
2629.98
2567.9
2509.64
2454.99
2399.23
2336.12
2258.42
2155.12
2009.49
1815.75
1594.11
1383.36
1214.39
1100.28
1027.69
985.7
969.405
971.042
989.886
1027.15
1070.07
1107.19
1126.41
1115.74
1085.2
1022.24
910.336
774.998
651.007
564.95
518.219
492.396
471.389
450.937
430.41
412.3
397.78
389.068
383.025
376.177
369.801
363.615
360.282
359.209
359.741
361.464
361.417
360.15
357.843
355.806
355.277
355.292
356.255
356.731
3325.46
1667.12
2164
2550.4
2649.64
2665.48
2674.8
2667.22
2659.61
2667.47
2660.76
2540.47
2240.53
2157.49
2171.85
2211.46
2264.43
2322
2380.36
2437.35
2491.68
2544.75
2599.67
2659.76
2727.34
2803.12
2878.9
2932.28
2956.9
2966.23
2926.55
2697
2516.05
2519.73
2546.77
2586.49
2623.83
2656.38
2688.08
2720.78
2753.64
2785.1
2815.44
2846.02
2877.85
2911.13
2947.49
2991.72
3052.92
3106.67
3118.48
3116.09
3001.28
2812.21
2785.47
2797.37
2823.4
2853.64
2878.4
2898.94
2919.1
2940.29
2962.52
2985.56
3009.31
3033.55
3057.45
3080.36
3103.88
3132.78
3176.53
3216.15
3221.92
3217.58
3134.49
2992.03
2962.19
2971.68
2989.9
3014.99
3036.37
3051.25
3063.74
3077.06
3092.58
3110.37
3129.18
3147.03
3163.01
3177.88
3193.77
3214.99
3251.01
3289.67
3300.24
3302.23
3263.19
3145.95
3087.28
3092.03
3104.98
3126.5
3151.09
3168.96
3180.44
3190.03
3200.92
3214.85
3231.93
3250.17
3266.67
3280.54
3293.66
3309.54
3333.77
3371.81
3400.83
3409.29
3408.21
3362.96
3268.83
3238.1
3241.9
3253.87
3274.14
3298.75
3316.88
3327.75
3336.58
3345.67
3356.64
3370.9
3387.8
3404.23
3418.45
3432.48
3450.37
3478.48
3512.74
3530.78
3539.36
3533.3
3475.33
3397.64
3384.95
3390.03
3401.05
3419.05
3441.08
3457.89
3469.74
3481.39
3494.64
3510.55
3530.67
3554.82
3578.28
3597.17
3612.55
3628.49
3649.91
3680.67
3709.47
3722.67
3729.57
3703.94
3627.59
3591.06
3597.36
3609.66
3627.34
3648.26
3662.84
3671.33
3678.45
3686.37
3696.36
3710.39
3728.45
3750.9
3774.23
3794.88
3814.04
3835.3
3863.08
3895.88
3921.21
3934.42
3939.27
3902.96
3836.12
3822.64
3836.08
3858.66
3887.63
3915.29
3935.07
3949.38
3962.71
3975.98
3990.31
4008.05
4028.12
4049.67
4068.41
4079.88
4084.98
4086.65
4088.41
4093.9
4099.35
4087.92
4056.49
3998.15
3897.96
3809.4
3762.99
3726.48
3698.41
3678.41
3652.64
3613.54
3573.07
3535.9
3502.64
3474.89
3452.99
3435.06
3416.67
3393.27
3364.77
3335.14
3308.82
3289.21
3265.34
3225.2
3166.23
3083.85
3010.28
2967.82
2933.88
2913
2890.07
2845.68
2788.91
2727.67
2668.21
2612.38
2559.98
2510.67
2460.49
2402.08
2327.37
2225.33
2078.71
1873.7
1632.51
1395.48
1207.34
1075.37
991.797
938.635
914.342
908.506
917.872
940.081
966.705
996.25
1014.75
1013.47
1006.15
979.265
915.625
826.2
729.99
651.361
599.004
561.718
527.475
493.75
460.974
432.104
409.116
394.62
386.011
377.608
370.744
363.933
359.836
358.618
358.958
360.832
361.164
360.161
358.031
355.892
355.272
355.225
356.07
356.593
3325.92
1628.51
2157.21
2553.6
2648.74
2663.37
2672.2
2664.55
2658.31
2667.08
2661.62
2544.92
2246.98
2160.38
2173.68
2212.3
2264.28
2321.35
2380.17
2438.41
2494.24
2547.94
2602.75
2662.37
2729.47
2804.35
2879.86
2934.69
2961.92
2970.18
2925.8
2689.84
2512.54
2516.53
2545.18
2586.24
2624.24
2656.74
2687.64
2718.93
2750.75
2781.97
2812.44
2843.14
2874.83
2907.87
2943.98
2988.46
3051.05
3107.4
3120.85
3118.91
3006.08
2814.01
2785.48
2797.9
2824.1
2854.51
2879.2
2899.46
2919.43
2940.83
2963.72
2987.7
3012.26
3036.79
3060.32
3082.44
3104.92
3133.53
3177.81
3218.01
3224.3
3219.46
3134.6
2990.68
2961.19
2970.49
2988.39
3012.97
3033.73
3048.05
3060.31
3073.86
3090.04
3108.69
3128.44
3147.54
3164.48
3179.52
3194.53
3214.3
3248.63
3287.61
3299.78
3302.52
3267.09
3150.7
3085.95
3089.57
3102.03
3123.1
3147.78
3166.01
3177.66
3187.36
3198.5
3213.05
3231.25
3250.83
3268.42
3282.72
3295.54
3310.39
3333.34
3370.21
3401.03
3410.49
3410.89
3371.22
3278.79
3243.02
3246.28
3257.64
3277.69
3302.99
3322.48
3334.39
3343.97
3353.81
3365.31
3379.68
3396.12
3411.59
3424.66
3437.54
3454.06
3479.78
3510
3525.42
3532.85
3525.44
3466.75
3391.48
3379.81
3385.29
3396.34
3414.29
3437.03
3454.65
3466.47
3477.66
3490.44
3506.01
3525.79
3549.66
3573.6
3593.24
3609.44
3625.81
3647.05
3676.72
3703.9
3716.56
3723.21
3697.52
3622.44
3587.09
3593.41
3605.38
3623.32
3644.55
3658.73
3666.2
3672.37
3680
3690.71
3705.42
3723.87
3747.12
3771.08
3791.74
3810.36
3830.64
3856.83
3886.44
3908.92
3922.11
3924.78
3884.09
3818.92
3808.36
3821.87
3844.11
3873.33
3903.75
3925.72
3940.76
3954.48
3968.59
3984.67
4003.64
4024.54
4046.67
4065.68
4077.87
4084.11
4087.14
4090.81
4099.12
4106.7
4096.47
4067.81
4011.68
3912.22
3827.08
3784.56
3750.24
3723.57
3704.29
3679.35
3641
3600.67
3562.55
3527.63
3497.08
3472.09
3452.2
3434.45
3413.57
3386.3
3355.71
3326.81
3303.55
3280.09
3239.59
3183.4
3102.28
3025.42
2980.28
2945.08
2923.12
2901.12
2859.18
2805.87
2749.2
2695.26
2644.74
2597.67
2553.03
2506.4
2451.33
2380.1
2281.73
2138.62
1931.17
1676.01
1416.77
1211.01
1068.45
980.684
923.01
892.373
879.713
880.382
886.279
891.683
902.399
913.598
923.212
930.557
926.634
900.716
848.75
787.167
728.245
680.03
636.093
589.312
541.032
494.285
453.664
421.434
400.37
388.586
378.884
371.522
364.384
359.651
358.258
358.368
360.206
360.881
360.093
358.172
355.984
355.255
355.152
355.851
356.416
3326.31
1568.47
2148.44
2557.57
2648.09
2660.3
2667.11
2660.48
2656.92
2666.46
2661.53
2548.02
2253
2162.71
2175.21
2213.06
2264.27
2320.72
2379.69
2439.05
2496.63
2551.52
2606.52
2665.69
2732.19
2806.31
2881.63
2936.46
2966.66
2974.15
2923.35
2679.95
2507.3
2511.63
2542.14
2585.03
2624.54
2657.47
2687.71
2717.8
2748.08
2778.54
2809.17
2840.47
2872.65
2905.67
2941.58
2986.21
3050.16
3109.5
3124.87
3122.29
3010.29
2814.9
2784.58
2797.53
2824.65
2856.07
2881.19
2901.16
2920.63
2941.83
2965.09
2989.84
3015.2
3039.99
3062.99
3084.01
3105.32
3133.81
3178.99
3220.04
3228
3222.48
3135.41
2988.87
2959.31
2967.9
2985.51
3009.88
3030.28
3044.12
3055.94
3069.43
3086.18
3106.05
3127.62
3148.58
3166.6
3181.53
3195.65
3214.16
3246.8
3286.44
3300.73
3304.99
3273.77
3159.91
3088.43
3090.51
3102.19
3122.64
3147.48
3166.31
3178.36
3188.42
3199.95
3214.97
3233.72
3254.02
3272.19
3286.62
3299.15
3312.89
3333.84
3368.63
3400.56
3410.94
3412.55
3377.66
3287.61
3248.02
3251.04
3261.82
3281.22
3306.34
3326.28
3339.12
3350.01
3361.39
3374.46
3390.22
3407.33
3422.31
3434.31
3445.47
3459.54
3481.69
3507.55
3520.53
3526.65
3518.2
3460.71
3388.23
3377.3
3383.46
3394.79
3412.53
3435.31
3453.3
3464.85
3475.34
3487.52
3502.56
3521.85
3545.17
3569.01
3589.08
3605.62
3622.05
3642.97
3671.31
3695.76
3707.45
3712.98
3686.11
3612.39
3579.19
3585.57
3597.65
3616.87
3640.5
3656.31
3664.6
3671.05
3678.61
3689.3
3703.77
3721.94
3744.61
3767.82
3787.3
3804.7
3823.87
3849.06
3875.66
3894.05
3906.23
3905.23
3861.38
3800.78
3793.67
3808.11
3830.72
3860.87
3893.64
3916.6
3932
3946.54
3962.01
3979.7
3999.36
4020.66
4042.99
4062.5
4075.94
4083.73
4088.51
4094.14
4104.01
4112
4102.02
4075.78
4022.99
3925.48
3846.28
3808.99
3778.07
3754.36
3737.46
3713.86
3676.71
3637.13
3598.29
3562.35
3529.29
3501.09
3478.68
3460.33
3440.54
3413.95
3381.8
3349.55
3322.16
3298.11
3257.28
3202.91
3122.1
3039.99
2989.35
2951.26
2926.6
2904.24
2863.91
2812.78
2759.33
2709.03
2661.75
2617.82
2576.29
2532.33
2479.95
2411.73
2317.46
2179.61
1975.59
1714.17
1441.05
1220.04
1068.75
979.168
922.549
889.331
872.445
866.398
861.676
850.896
841.227
839.096
847.552
861.639
870.31
867.458
845.118
809.481
771.564
734.758
692.666
640.55
582.37
524.217
473.599
433.183
406.011
390.825
379.917
372.02
364.74
359.604
358.068
358.025
359.795
360.708
360.038
358.265
356.033
355.173
355.025
355.604
356.232
3326.44
1570.88
2143.27
2558.58
2648.66
2657.3
2661.06
2656.77
2655.52
2665.71
2660.94
2549.03
2256.04
2163.61
2175.98
2213.51
2264.3
2320.36
2379.36
2439.52
2498.43
2554.67
2610.03
2668.83
2734.95
2808.54
2883.51
2937.43
2969.91
2975.99
2918.88
2669.66
2501.55
2505.73
2538.58
2583.95
2625.44
2659.32
2689.1
2717.65
2746.22
2775.55
2806.31
2838.54
2871.57
2905.14
2941.14
2985.82
3050.53
3112.39
3129.66
3125.75
3013.7
2814.77
2782.67
2796.07
2824.56
2857.71
2883.98
2904.12
2923.16
2943.92
2967.14
2992.26
3018.09
3043.04
3065.64
3085.79
3106.22
3134.65
3180.48
3221.97
3231.37
3224.84
3135.88
2986.46
2956.33
2963.93
2981.18
3005.48
3025.99
3039.76
3051.29
3064.82
3082.23
3103.53
3126.87
3149.12
3167.76
3182.64
3196.11
3213.89
3245.46
3286.14
3302.97
3308.93
3281.85
3171.97
3093.99
3094.04
3104.83
3124.5
3149.18
3168.56
3181.13
3191.64
3203.74
3219.45
3238.79
3259.48
3277.79
3291.92
3303.31
3315.43
3334.24
3366.69
3399
3410.09
3412.36
3381.18
3293.97
3251.08
3254.09
3264.7
3283.74
3308.73
3329.51
3343.36
3354.89
3367.22
3381.95
3399.95
3418.96
3434.48
3445.94
3455.72
3467.05
3484.62
3506.27
3517.61
3522.83
3514.05
3458.62
3388.6
3377.41
3384.01
3395.39
3412.95
3435.9
3454.39
3465.86
3475.73
3487.23
3501.53
3520.07
3543.04
3566.81
3586.64
3602.58
3618.31
3638.47
3664.83
3685.93
3696.27
3700.17
3672.57
3601.24
3570.31
3576.86
3589.3
3609.12
3635.41
3654.26
3664.74
3672.68
3681.19
3691.94
3705.77
3722.52
3742.76
3763.76
3781.81
3797.96
3815.68
3838.45
3861.4
3876.17
3886.98
3884.05
3842.04
3786.95
3781.58
3796.27
3818.51
3848.38
3882.24
3906.47
3922.99
3938.57
3955.24
3973.93
3993.9
4015.49
4038.3
4058.76
4073.7
4083.37
4090.04
4097.48
4108.35
4115.58
4106.4
4082.7
4032.16
3937.3
3865.96
3834.69
3808.07
3788.35
3775.01
3753.79
3718.59
3680.69
3642.67
3607.01
3573.01
3542.87
3517.99
3497.14
3475.45
3447.41
3413.08
3377.46
3346.16
3319.84
3278.36
3222.76
3140.4
3051.56
2993.33
2952.72
2925.72
2903.32
2863.64
2813.03
2760.67
2712.46
2667.8
2627.5
2588.95
2545.89
2493.11
2425.75
2334.38
2201.35
2002.21
1741.27
1463.12
1233.58
1075.57
983.354
928.258
895.166
877.43
868.186
859.12
842.038
818.695
797.012
790.896
797.973
810.887
820.053
819.951
805.632
782.623
756.014
719.226
669.252
609.09
546.133
489.482
443.191
411.21
392.987
380.748
372.245
364.911
359.568
357.94
357.858
359.599
360.635
360.016
358.304
356.019
355.055
354.885
355.407
356.112
3326.29
1643.73
2145.14
2554.27
2650.85
2655.96
2656.66
2654.36
2654.72
2665.23
2659.53
2546.49
2255.48
2164.2
2177.04
2214.26
2264.87
2320.82
2379.75
2440.06
2499.79
2556.83
2612.24
2670.52
2736.01
2809.12
2884.32
2937.26
2971.33
2975.7
2913.95
2662.49
2496.98
2500.29
2535.08
2582.93
2626.71
2661.98
2691.48
2718.39
2745.35
2773.92
2804.8
2837.88
2872.05
2906.37
2942.69
2987.34
3051.97
3115.37
3133.75
3128.41
3015.72
2813.96
2780.39
2794.57
2824.38
2858.93
2886.09
2906.77
2925.82
2946.28
2969.21
2994.25
3020.1
3045.06
3067.53
3087.37
3107.49
3135.79
3181.32
3222.79
3233.69
3226.04
3136.55
2984.43
2952.31
2958.64
2975.58
3000.13
3021.33
3035.43
3047.4
3061.38
3079.42
3101.49
3125.45
3148.43
3168.03
3183.59
3197.29
3214.64
3245.36
3287.13
3306.36
3313.2
3289.45
3184.7
3100.59
3098.43
3108.48
3127.45
3151.81
3171.67
3184.82
3196.07
3209.14
3225.54
3245.29
3265.95
3283.73
3296.78
3306.77
3317.52
3334.53
3364.78
3397.11
3408.83
3411.55
3382.96
3298.1
3252.85
3255.97
3266.69
3285.57
3310.35
3331.14
3345.07
3356.89
3370.27
3387.04
3407.7
3428.92
3445.48
3456.73
3465.62
3475.09
3488.58
3506.09
3516.46
3521.47
3513.56
3461.24
3391.87
3379.51
3386.33
3398.06
3415.86
3439.08
3458.19
3469.75
3479.06
3489.8
3503.35
3521.04
3543.31
3566.7
3586.14
3601.39
3616.14
3635.19
3659.48
3677.73
3686.76
3689.51
3661.8
3593.54
3564.96
3571.5
3584.21
3604.31
3631.82
3653.02
3665.28
3675.08
3685.52
3697.49
3710.99
3725.83
3742.5
3759.5
3774.63
3788.66
3804.33
3824.29
3845.22
3858.99
3869.63
3867.86
3829.3
3776.92
3771.5
3785.38
3806.48
3834.88
3869.14
3895.31
3912.98
3929.25
3946.61
3965.6
3985.77
4007.93
4031.84
4054.01
4070.9
4082.48
4090.76
4099.37
4111.18
4118.12
4109.88
4088.57
4039.88
3948.38
3885.69
3860.53
3838.82
3823.89
3815.06
3797.27
3764.77
3729.44
3693.46
3659.27
3625.71
3594.62
3567.4
3543.18
3517.95
3486.84
3449.34
3409.88
3374.44
3344.29
3300.67
3241.41
3155.25
3058.7
2992.9
2949.65
2919.3
2895.82
2857.21
2807.8
2757.36
2711.19
2668.29
2630.11
2593.85
2552.22
2499.51
2431.63
2340.03
2208.3
2013.77
1758.15
1482.48
1252.54
1093.54
1000.72
947.091
916.225
900.114
890.053
879.388
860.05
826.89
785.578
753.237
744.213
750.303
762.636
773.668
777.453
770.822
753.622
722.836
677.244
620.694
558.822
500.342
450.896
415.756
395.19
381.492
372.287
364.692
359.406
357.82
357.755
359.521
360.58
359.981
358.281
355.996
354.997
354.821
355.318
356.043
3325.99
1670.92
2150.8
2545.74
2652.47
2656.31
2654.98
2653.48
2654.75
2665.42
2657.77
2542.22
2253.01
2164.82
2178.33
2215.74
2266.32
2322.15
2380.93
2441.5
2501.32
2557.96
2612.69
2670.13
2734.6
2807.59
2883.31
2935.94
2971.44
2974.82
2911.55
2660.85
2494.91
2497.03
2532.56
2581.97
2627.88
2664.94
2694.61
2720.43
2745.93
2773.86
2805
2838.85
2874.07
2909.32
2945.83
2990.1
3054.13
3117.98
3136.65
3129.96
3016.42
2812.49
2777.57
2792.1
2822.98
2858.77
2886.89
2908.09
2927.2
2947.52
2970.13
2994.87
3020.58
3045.65
3068.11
3087.8
3107.8
3135.69
3181.21
3223.17
3233.79
3225.7
3137.83
2983.48
2947.46
2952.59
2969.53
2994.66
3017.15
3032.82
3045.75
3060.05
3078.09
3100.23
3124.57
3147.98
3167.78
3183.59
3197.32
3214.67
3245.3
3288.4
3309.8
3316.6
3295.88
3197.05
3108.29
3103.57
3112.59
3130.67
3154.46
3174.75
3188.3
3200.02
3213.9
3231.38
3251.94
3272.93
3290.11
3301.95
3310.53
3319.95
3335.17
3363.33
3395.47
3407.64
3410.42
3383.29
3299.69
3253.05
3256.21
3267.27
3286.27
3311.26
3332.3
3346.27
3358.16
3372.13
3390.35
3413.11
3435.73
3452.44
3463.92
3472.58
3481.4
3493.45
3508.76
3519.05
3524.06
3517.43
3467.99
3398.1
3384.13
3390.88
3402.83
3420.87
3444.24
3463.66
3475.43
3484.52
3494.85
3507.99
3525.2
3546.64
3568.96
3587.34
3601.69
3615.46
3633.23
3655.65
3672.28
3680.24
3682.47
3655.58
3589.24
3561.03
3567.52
3580.81
3601.56
3630.12
3653.88
3667.91
3678.82
3690.03
3702.58
3716.22
3730.4
3744.21
3756.51
3767.5
3778.8
3792.38
3811.18
3832.49
3847.16
3858.15
3857.03
3819.53
3767.98
3762.3
3775.11
3794.86
3822.02
3856.32
3883.98
3902.22
3918.56
3936.1
3955.07
3975.52
3998.4
4023.38
4047.14
4065.91
4079.54
4089.87
4099.96
4112.25
4117.94
4111.74
4093.73
4046.83
3959.58
3905.28
3885.65
3868.92
3859.08
3855.22
3842.06
3813.16
3781.05
3747.62
3715.16
3682.43
3650.97
3621.85
3594.39
3565.37
3530.7
3489.53
3445.64
3404.92
3369.03
3321.03
3256.37
3165.23
3061.25
2987.47
2940.29
2905.12
2879.47
2843.65
2796.01
2748.23
2703.65
2661.71
2624.39
2589.84
2551.29
2501.01
2433.12
2340.83
2209.79
2018.05
1770.28
1502.87
1280.98
1128.69
1041.47
995.745
970.57
958.78
951.959
942.888
920.888
875.012
807.053
739
699.347
691.487
698.65
712.021
725.708
733.225
729.115
710.724
674.066
623.274
564.777
506.991
456.431
419.556
397.438
382.139
372.156
364.148
359.095
357.657
357.676
359.487
360.467
359.873
358.199
355.981
355.019
354.835
355.303
356.012
3325.5
1654.44
2151.05
2557.55
2653.69
2655.69
2654.82
2653.86
2654.97
2665.07
2655.92
2538.06
2250.67
2166.08
2180.39
2217.88
2268.73
2325.01
2384.02
2444.32
2503.08
2558.46
2612.11
2668.74
2732.5
2805.33
2881.41
2935.19
2970.93
2974.17
2912.5
2664.18
2495.89
2496.88
2532.35
2582.61
2629.93
2668.13
2698.11
2723.6
2748.41
2775.7
2806.93
2841.48
2877.38
2913.03
2949.38
2992.92
3055.99
3119.46
3137.69
3130.1
3015.51
2810.04
2774
2788.15
2819.5
2856.07
2885.18
2907.33
2926.97
2947.08
2969.09
2993.29
3018.78
3043.7
3066.31
3086.31
3106.31
3133.92
3179.25
3221.22
3230.89
3223.17
3139.74
2984.22
2942.97
2947
2963.85
2989.96
3014.36
3031.9
3045.61
3059.8
3077.29
3098.78
3122.85
3146.54
3166.65
3182.53