/*--------------------------------*- C++ -*----------------------------------*\
| =========                 |                                                 |
| \\      /  F ield         | OpenFOAM: The Open Source CFD Toolbox           |
|  \\    /   O peration     | Version:  2306                                  |
|   \\  /    A nd           | Website:  www.openfoam.com                      |
|    \\/     M anipulation  |                                                 |
\*---------------------------------------------------------------------------*/
FoamFile
{
    version     2.0;
    format      ascii;
    arch        "LSB;label=32;scalar=64";
    class       volVectorField;
    location    "0.14";
    object      U;
}
// * * * * * * * * * * * * * * * * * * * * * * * * * * * * * * * * * * * * * //

dimensions      [0 1 -1 0 0 0 0];

internalField   nonuniform List<vector> 
6000
(
(-2371.82 -0.08228 0)
(-402.683 -1.03811 0)
(108.12 2.33135 0)
(309.313 2.37899 0)
(357.183 2.08911 0)
(359.947 1.89904 0)
(354.196 1.67961 0)
(345.554 1.85149 0)
(332.563 1.9602 0)
(316.176 1.97301 0)
(298.651 1.63666 0)
(190.682 0.661386 0)
(-109.948 -0.508543 0)
(-222.747 -0.916503 0)
(-218.274 -0.762345 0)
(-188.748 -0.56158 0)
(-145.37 -0.435897 0)
(-99.9281 0.0148144 0)
(-54.7191 0.677316 0)
(-9.55462 1.29963 0)
(35.4839 1.36532 0)
(79.7037 1.73904 0)
(122.983 2.23116 0)
(167.213 2.34755 0)
(215.861 2.22197 0)
(271.643 2.20293 0)
(323.056 1.90942 0)
(351.312 1.23584 0)
(362.884 0.808644 0)
(360.831 0.355311 0)
(307.977 -0.0794382 0)
(73.0988 -0.172093 0)
(-100.918 -0.39105 0)
(-104.436 -0.944734 0)
(-87.0443 -1.55143 0)
(-56.4681 -1.95117 0)
(-30.1131 -2.06814 0)
(-9.73948 -1.98369 0)
(10.1984 -1.79154 0)
(32.9374 -1.7024 0)
(58.3985 -1.68689 0)
(84.7497 -1.57362 0)
(110.028 -1.39322 0)
(132.955 -1.15985 0)
(153.138 -0.957109 0)
(171.483 -0.989107 0)
(191.22 -0.989239 0)
(219.993 -1.03264 0)
(267.943 -1.11233 0)
(309.176 -0.866297 0)
(314.45 -0.506927 0)
(297.422 -0.187013 0)
(171.272 -0.155195 0)
(1.56283 -0.178551 0)
(-20.1944 -0.220438 0)
(-13.7409 -0.437888 0)
(4.08836 -0.886737 0)
(24.1796 -1.36309 0)
(38.0016 -1.67017 0)
(48.7549 -1.66914 0)
(61.241 -1.57223 0)
(76.9856 -1.55898 0)
(94.9304 -1.56466 0)
(113.058 -1.52071 0)
(129.709 -1.3628 0)
(143.994 -1.09399 0)
(155.704 -0.841642 0)
(165.781 -0.786101 0)
(176.66 -0.745675 0)
(193.259 -0.725375 0)
(225.411 -1.00646 0)
(256.546 -0.69661 0)
(259.305 -0.414036 0)
(248.727 -0.353033 0)
(173.753 0.0544851 0)
(42.8696 0.600915 0)
(8.81277 0.888271 0)
(11.491 1.13132 0)
(21.6775 1.18253 0)
(40.338 1.02755 0)
(57.2227 1.02134 0)
(69.0235 1.08952 0)
(79.0395 1.11991 0)
(89.5502 1.09298 0)
(101.351 1.05256 0)
(114.619 0.958225 0)
(128.782 0.833927 0)
(142.633 0.677604 0)
(155.017 0.59847 0)
(166.148 0.482514 0)
(177.847 0.188511 0)
(193.455 -0.200502 0)
(219.16 -0.327615 0)
(238.364 -0.160095 0)
(238.393 0.0986898 0)
(228.804 0.37659 0)
(177.103 0.989723 0)
(73.0724 1.83796 0)
(34.3626 2.12575 0)
(35.2835 2.35785 0)
(41.2496 2.61965 0)
(55.6846 2.66475 0)
(72.5611 2.73121 0)
(84.6661 2.91121 0)
(93.0144 3.05728 0)
(101.065 3.09992 0)
(110.912 3.03301 0)
(123.684 2.85603 0)
(138.917 2.54128 0)
(153.937 2.11616 0)
(165.698 1.60741 0)
(174.009 0.86788 0)
(181.22 -0.165277 0)
(191.84 -1.13936 0)
(211.739 -1.68562 0)
(234.299 -1.987 0)
(242.303 -1.94915 0)
(241.747 -1.68269 0)
(219.583 -0.888898 0)
(138.37 -0.032425 0)
(61.4605 0.559954 0)
(47.3259 0.765246 0)
(46.503 1.13856 0)
(54.9125 1.49485 0)
(71.8065 1.8489 0)
(90.9516 2.28581 0)
(103.838 2.35827 0)
(110.844 2.2035 0)
(115.651 2.15283 0)
(120.739 2.04049 0)
(127.857 2.04244 0)
(137.357 2.1449 0)
(147.685 2.23574 0)
(156.266 2.38061 0)
(162.372 2.5993 0)
(167.702 2.86024 0)
(175.693 3.0844 0)
(192.925 3.24221 0)
(221.434 3.30959 0)
(236.722 3.25399 0)
(238.318 3.14614 0)
(227.781 3.02064 0)
(175.833 2.73282 0)
(96.0859 2.32117 0)
(74.7517 1.86591 0)
(72.0106 1.46021 0)
(77.8537 1.11534 0)
(93.2951 0.784513 0)
(108.718 0.663827 0)
(114.984 0.903946 0)
(119.028 0.808144 0)
(122.915 0.500691 0)
(127.99 -0.111525 0)
(135.237 -0.350385 0)
(143.354 0.0377842 0)
(151.072 0.442015 0)
(156.269 0.877924 0)
(158.63 1.25934 0)
(159.882 1.68167 0)
(162.497 2.27994 0)
(169.714 2.8755 0)
(185.741 3.41397 0)
(197.29 3.88061 0)
(199.877 4.24186 0)
(193.123 4.59292 0)
(160.315 5.00609 0)
(94.0078 5.3612 0)
(65.4579 5.53721 0)
(64.1409 5.63203 0)
(68.4458 5.65479 0)
(81.0914 5.54199 0)
(99.2852 5.30739 0)
(110.992 4.92423 0)
(115.247 4.43457 0)
(117.813 3.83962 0)
(120.943 3.2164 0)
(125.267 2.61728 0)
(131.166 2.05864 0)
(138.871 1.61787 0)
(147.902 1.26037 0)
(156.095 1.04491 0)
(161.725 1.06324 0)
(166.125 0.921537 0)
(171.446 0.813342 0)
(180.879 0.931751 0)
(195.906 1.18219 0)
(203.531 1.45094 0)
(204.257 1.5485 0)
(193.893 1.59191 0)
(155.65 1.7477 0)
(97.4393 1.86272 0)
(79.3808 1.7494 0)
(80.3472 1.58621 0)
(88.1465 1.3345 0)
(102.916 1.02325 0)
(116.261 0.5489 0)
(121.609 -0.0323128 0)
(123.295 -0.640023 0)
(122.7 -1.14414 0)
(122.357 -1.60989 0)
(123.026 -1.8992 0)
(126.269 -2.11085 0)
(132.149 -2.26446 0)
(141.496 -2.32925 0)
(152.617 -2.37974 0)
(159.489 -2.36022 0)
(162.806 -2.16262 0)
(164.551 -1.72254 0)
(166.762 -1.16481 0)
(172.129 -0.480293 0)
(180.391 0.202478 0)
(184.856 0.696124 0)
(180.069 0.918015 0)
(161.273 0.944297 0)
(119.963 0.935702 0)
(84.6666 0.920213 0)
(72.1082 0.831009 0)
(74.262 0.704178 0)
(87.5794 0.466801 0)
(108.191 0.162509 0)
(122.223 -0.164342 0)
(124.622 -0.375336 0)
(122.578 -0.433338 0)
(119.789 -0.33146 0)
(118.079 0.136615 0)
(117.838 0.715879 0)
(119.962 1.23509 0)
(126.534 1.53735 0)
(138.168 1.63787 0)
(151.7 1.35585 0)
(163.739 0.507053 0)
(175.254 -0.907265 0)
(189.045 -2.12736 0)
(200.465 -2.90496 0)
(203.751 -3.28896 0)
(193.568 -3.50744 0)
(161.675 -3.44408 0)
(104.2 -3.01632 0)
(77.3748 -2.45035 0)
(70.955 -1.78346 0)
(77.141 -0.967263 0)
(92.289 0.232229 0)
(105.834 1.21805 0)
(108.69 1.66276 0)
(105.567 1.77191 0)
(102.829 1.97093 0)
(103.966 1.84627 0)
(110.548 1.35447 0)
(118.663 0.913242 0)
(124.39 0.673728 0)
(129.283 0.195183 0)
(138.84 -0.706384 0)
(159.356 -2.09566 0)
(180.578 -3.49422 0)
(182.721 -5.01401 0)
(154.395 -6.0982 0)
(114.07 -6.36818 0)
(93.3676 -6.25814 0)
(99.9207 -5.60721 0)
(119.67 -4.46391 0)
(136.091 -2.99028 0)
(142.168 -1.88963 0)
(144.747 -1.58189 0)
(149.761 -1.52715 0)
(157.135 -0.509208 0)
(170.113 0.564384 0)
(189.533 0.922305 0)
(200.14 1.56392 0)
(202.993 2.77863 0)
(196.152 3.94741 0)
(178.459 4.59604 0)
(148.674 4.4281 0)
(128.142 3.61767 0)
(120.723 2.67113 0)
(118.44 1.87338 0)
(119.516 1.42088 0)
(133.497 1.09505 0)
(146.103 0.623536 0)
(144.592 0.222836 0)
(137.14 -0.176385 0)
(124.266 -0.428682 0)
(120.301 -0.508552 0)
(122.276 -0.517032 0)
(130.232 -0.507703 0)
(139.858 -0.651797 0)
(143.575 -0.913547 0)
(142.015 -1.04541 0)
(137.589 -1.08022 0)
(132.677 -0.9856 0)
(131.597 -0.715874 0)
(132.627 -0.335067 0)
(136.153 0.064233 0)
(139.15 0.2354 0)
(139.315 0.232729 0)
(138.161 0.0893654 0)
(136.708 -0.10716 0)
(136.308 -0.186741 0)
(136.88 -0.195631 0)
(138.675 -0.135311 0)
(139.728 -0.0402261 0)
(-2371.83 0.227611 0)
(-395.13 8.98748 0)
(104.216 3.99541 0)
(309.919 2.41491 0)
(358.531 2.32835 0)
(360.706 1.86408 0)
(354.022 1.01551 0)
(345.02 -0.0187294 0)
(333.141 0.268566 0)
(317.811 2.93794 0)
(299.659 4.76849 0)
(186.758 4.45724 0)
(-116.814 -0.671992 0)
(-223.416 -3.0001 0)
(-218.164 -2.5109 0)
(-188.28 -1.82464 0)
(-145.012 -1.17088 0)
(-99.8507 -0.0273198 0)
(-54.9361 1.68678 0)
(-9.74414 2.87161 0)
(35.6358 3.119 0)
(80.4984 4.02349 0)
(124.528 5.8354 0)
(169.025 6.94553 0)
(217.133 7.59089 0)
(271.814 7.95637 0)
(322.606 7.23245 0)
(350.433 5.20045 0)
(361.436 3.03606 0)
(359.401 1.26737 0)
(306.858 -0.40683 0)
(72.8084 -1.30008 0)
(-101.224 -2.29816 0)
(-104.905 -3.84909 0)
(-87.067 -5.14994 0)
(-55.8586 -5.6865 0)
(-28.9778 -5.42723 0)
(-8.40152 -4.85274 0)
(11.2486 -4.34522 0)
(33.2861 -4.17673 0)
(57.9218 -4.88449 0)
(83.8362 -5.61319 0)
(109.365 -6.08235 0)
(132.927 -6.06897 0)
(153.671 -5.90353 0)
(172.289 -5.70534 0)
(191.961 -5.16311 0)
(220.62 -4.51571 0)
(268.584 -3.97371 0)
(309.849 -3.60503 0)
(315.515 -3.48717 0)
(298.067 -3.88007 0)
(171.721 -3.4785 0)
(0.989661 -3.06921 0)
(-21.038 -4.00159 0)
(-15.0091 -4.96018 0)
(3.1837 -6.21914 0)
(24.1235 -7.20856 0)
(38.7565 -7.25935 0)
(49.9316 -6.29301 0)
(62.4366 -5.40739 0)
(77.9344 -5.05255 0)
(95.5259 -5.02398 0)
(113.392 -4.92378 0)
(129.94 -4.49135 0)
(144.203 -3.76279 0)
(155.784 -3.00757 0)
(165.494 -2.86213 0)
(176.099 -3.17881 0)
(193.289 -3.2375 0)
(226.586 -2.82633 0)
(258.463 -0.767167 0)
(261.195 1.40814 0)
(250.306 2.7081 0)
(174.965 3.40272 0)
(42.6846 3.62112 0)
(8.82912 3.22753 0)
(10.9453 3.46867 0)
(21.2848 3.48667 0)
(40.1184 3.17884 0)
(57.1983 3.3683 0)
(69.1002 3.7939 0)
(79.1523 3.93291 0)
(89.7193 3.88022 0)
(101.671 3.84974 0)
(115.154 3.81495 0)
(129.461 3.803 0)
(143.198 3.75063 0)
(155.238 3.64517 0)
(165.948 3.19596 0)
(177.167 2.30661 0)
(192.533 1.23839 0)
(218.857 0.0852899 0)
(239.475 0.393196 0)
(240.089 1.97276 0)
(231.17 3.65054 0)
(179.765 5.33525 0)
(74.2444 7.04629 0)
(34.6113 7.41527 0)
(35.2914 7.60041 0)
(41.2861 7.96007 0)
(56.0702 7.95667 0)
(73.4045 8.23133 0)
(85.7256 9.02175 0)
(94.0421 9.74426 0)
(101.914 10.1486 0)
(111.451 10.2663 0)
(123.828 10.1108 0)
(138.702 9.55544 0)
(153.516 8.61648 0)
(165.157 7.36356 0)
(173.198 5.67455 0)
(179.873 3.75617 0)
(189.449 1.68662 0)
(208.06 -1.31559 0)
(232.43 -4.48684 0)
(241.567 -6.0362 0)
(241.466 -6.82451 0)
(221.218 -7.04474 0)
(143.243 -4.2621 0)
(63.5372 -0.238123 0)
(48.7914 1.48273 0)
(48.1995 3.22591 0)
(56.293 4.59024 0)
(72.6212 5.75278 0)
(91.1473 6.85332 0)
(103.602 6.94086 0)
(110.3 6.61765 0)
(114.986 6.53973 0)
(120.187 6.42749 0)
(127.518 6.54517 0)
(137.322 6.76821 0)
(147.949 6.9652 0)
(156.758 7.27232 0)
(163.03 7.76847 0)
(168.467 8.43231 0)
(176.555 9.13653 0)
(193.729 9.86738 0)
(221.818 10.4783 0)
(236.424 10.4593 0)
(237.628 9.94009 0)
(226.695 9.32477 0)
(174.379 8.30154 0)
(95.3811 7.02152 0)
(74.609 6.03785 0)
(72.4854 5.61843 0)
(78.3626 5.38754 0)
(93.6642 4.87928 0)
(108.938 4.79554 0)
(115.093 5.35438 0)
(118.914 5.08833 0)
(122.421 4.35746 0)
(126.898 3.19251 0)
(133.316 1.86354 0)
(141.323 0.526859 0)
(150.072 -0.106154 0)
(155.842 -0.381622 0)
(158.615 -0.678403 0)
(160.528 -0.545332 0)
(163.764 0.0264479 0)
(171.885 1.10756 0)
(188.751 2.92753 0)
(200.963 5.27502 0)
(203.623 7.22627 0)
(196.673 9.21596 0)
(163.445 11.1059 0)
(95.9618 12.5629 0)
(66.524 13.1643 0)
(65.0706 13.381 0)
(69.3191 13.5886 0)
(81.8163 13.6605 0)
(99.85 13.6843 0)
(111.156 13.5193 0)
(114.98 13.0276 0)
(117.241 12.2134 0)
(119.947 11.0905 0)
(123.634 9.69349 0)
(128.95 8.04552 0)
(136.507 6.26489 0)
(145.886 4.53818 0)
(154.519 3.00391 0)
(160.624 1.75659 0)
(165.58 1.06077 0)
(171.316 0.566734 0)
(181.199 0.290201 0)
(196.785 0.333328 0)
(205.021 0.842169 0)
(206.346 1.68187 0)
(196.382 2.827 0)
(158.238 4.21141 0)
(98.7253 5.34062 0)
(79.9054 5.40348 0)
(80.6725 5.08937 0)
(88.4222 4.59456 0)
(103.16 4.05149 0)
(115.908 3.33786 0)
(121.042 2.65676 0)
(122.156 2.06821 0)
(121.087 1.16155 0)
(120.434 -0.1141 0)
(121.083 -1.48662 0)
(124.553 -2.80757 0)
(130.544 -3.86043 0)
(139.918 -4.56156 0)
(150.946 -5.28913 0)
(158.276 -6.05094 0)
(161.929 -6.46632 0)
(164.351 -6.4468 0)
(167.496 -5.88215 0)
(173.752 -4.66002 0)
(182.318 -3.08107 0)
(186.496 -1.48587 0)
(181.671 -0.241212 0)
(163.031 0.987812 0)
(121.394 1.81214 0)
(85.5507 2.14882 0)
(72.8743 2.3147 0)
(74.8548 2.47032 0)
(87.7489 2.4929 0)
(107.722 1.90796 0)
(121.491 0.990113 0)
(123.934 0.129594 0)
(121.864 -0.59609 0)
(119.71 -1.22413 0)
(118.865 -0.951913 0)
(119.214 -0.425452 0)
(121.796 0.691289 0)
(128.541 2.23729 0)
(139.904 3.60582 0)
(152.888 4.3639 0)
(163.832 4.2581 0)
(173.623 3.35801 0)
(185.727 1.23601 0)
(196.632 -1.67247 0)
(199.799 -4.76125 0)
(189.995 -7.61219 0)
(159.407 -9.71798 0)
(103.602 -9.74827 0)
(77.2771 -8.65941 0)
(70.9496 -7.54125 0)
(77.9027 -6.24931 0)
(94.5004 -4.44175 0)
(108.934 -1.6208 0)
(111.586 1.51907 0)
(107.659 3.77906 0)
(104.556 5.61977 0)
(104.671 6.59464 0)
(109.772 6.01767 0)
(118.064 4.06273 0)
(125.272 2.62316 0)
(130.88 2.03017 0)
(140.245 1.11889 0)
(159.099 -0.865226 0)
(178.267 -6.11728 0)
(180.527 -12.585 0)
(155.206 -17.3298 0)
(114.768 -18.6428 0)
(92.3557 -18.8007 0)
(99.3663 -18.1594 0)
(120.646 -15.6814 0)
(137.239 -10.9962 0)
(141.917 -6.74686 0)
(144.264 -4.69062 0)
(149.187 -2.5764 0)
(156.191 -0.278235 0)
(169.371 1.94886 0)
(188.637 3.24531 0)
(198.977 5.11395 0)
(201.923 8.29463 0)
(195.718 12.3815 0)
(178.036 13.6204 0)
(149.492 13.0202 0)
(129.402 10.6843 0)
(121.378 8.2804 0)
(118.259 6.04648 0)
(119.186 4.54438 0)
(133.233 3.52779 0)
(145.397 1.89479 0)
(143.961 0.425275 0)
(136.913 -1.21912 0)
(125.092 -2.0217 0)
(121.466 -1.64975 0)
(123.179 -1.07723 0)
(130.688 -0.381788 0)
(139.64 0.024725 0)
(142.724 -0.114498 0)
(140.792 -0.697659 0)
(136.208 -1.7742 0)
(132.345 -2.52816 0)
(131.778 -2.50116 0)
(133.542 -1.98998 0)
(137.447 -0.694615 0)
(139.854 0.417797 0)
(139.473 0.776349 0)
(137.819 0.833979 0)
(136.092 0.360427 0)
(135.754 -0.0861904 0)
(136.605 -0.447958 0)
(138.827 -0.463433 0)
(139.951 -0.261607 0)
(-2371.96 0.361382 0)
(-384.059 10.1324 0)
(96.5485 5.30272 0)
(309.483 2.94647 0)
(358.855 3.05253 0)
(359.887 2.39644 0)
(352.282 1.16186 0)
(343.602 -0.704 0)
(333.402 -0.100367 0)
(319.165 3.41042 0)
(300.044 5.7171 0)
(180.002 5.0023 0)
(-126.523 -1.56808 0)
(-224.474 -4.22097 0)
(-217.732 -3.41222 0)
(-187.062 -1.99951 0)
(-143.841 -0.931289 0)
(-99.3607 0.764678 0)
(-55.1436 3.1108 0)
(-10.1142 4.6373 0)
(35.7052 4.97516 0)
(81.5713 5.88058 0)
(126.86 8.27414 0)
(172.094 9.65661 0)
(219.711 10.7077 0)
(272.774 11.2557 0)
(322.563 10.8664 0)
(349.318 8.18386 0)
(359.59 5.48659 0)
(357.308 3.21497 0)
(304.558 0.883287 0)
(71.2972 -0.731973 0)
(-102.246 -2.27806 0)
(-106.18 -4.3091 0)
(-87.265 -5.84897 0)
(-54.5607 -6.50563 0)
(-26.2718 -6.07395 0)
(-5.22194 -5.19296 0)
(13.7176 -4.5501 0)
(34.4638 -4.56986 0)
(58.0706 -5.41421 0)
(83.5157 -6.4951 0)
(109.066 -7.4075 0)
(133.078 -7.79386 0)
(154.545 -8.09122 0)
(173.63 -8.21289 0)
(193.242 -7.82284 0)
(221.762 -7.14671 0)
(269.713 -6.43664 0)
(310.651 -5.80071 0)
(316.865 -5.48864 0)
(298.604 -5.77522 0)
(172.721 -5.51759 0)
(-0.193368 -5.52719 0)
(-23.4006 -7.19459 0)
(-17.8615 -8.52101 0)
(0.705705 -10.1237 0)
(22.8363 -11.3481 0)
(38.711 -11.1656 0)
(50.5045 -9.77192 0)
(62.8936 -8.63513 0)
(77.8836 -8.22842 0)
(95.0955 -8.2127 0)
(112.967 -7.97392 0)
(129.734 -7.26849 0)
(144.038 -6.24423 0)
(155.243 -5.22657 0)
(164.302 -4.98087 0)
(174.538 -5.2192 0)
(192.767 -5.23334 0)
(227.891 -4.46294 0)
(261.077 -1.77291 0)
(264.6 1.49867 0)
(253.277 3.61392 0)
(176.489 4.72741 0)
(42.4525 4.78294 0)
(9.28391 4.12087 0)
(10.9991 4.33542 0)
(21.6201 4.28954 0)
(40.7668 4.04923 0)
(58.0287 4.50491 0)
(69.9126 5.30387 0)
(79.8784 5.65553 0)
(90.4534 5.69161 0)
(102.622 5.70128 0)
(116.447 5.64554 0)
(130.966 5.59941 0)
(144.512 5.57113 0)
(155.881 5.2924 0)
(165.677 4.47081 0)
(175.895 2.91171 0)
(191 1.13113 0)
(218.4 -0.387195 0)
(241.723 -0.226616 0)
(243.611 1.95872 0)
(235.861 4.38488 0)
(185.359 6.79079 0)
(78.0863 9.34111 0)
(37.0619 9.93291 0)
(37.022 10.3272 0)
(42.7845 10.7096 0)
(57.6459 10.6059 0)
(75.0491 10.8683 0)
(87.2364 11.8005 0)
(95.3208 12.6275 0)
(102.921 13.095 0)
(112.114 13.2456 0)
(123.979 13.0958 0)
(138.194 12.4722 0)
(152.092 11.1878 0)
(162.867 9.15958 0)
(170.342 6.32774 0)
(176.646 2.96774 0)
(185.641 -0.482066 0)
(203.314 -4.17138 0)
(229.009 -7.57105 0)
(239.523 -9.40461 0)
(239.648 -10.525 0)
(222.359 -10.5817 0)
(150.654 -7.15193 0)
(67.533 -1.68396 0)
(51.3056 1.11476 0)
(50.9817 3.37266 0)
(58.1727 5.46645 0)
(73.3676 7.0139 0)
(91.0829 8.52687 0)
(103.103 8.70016 0)
(109.384 8.70812 0)
(113.761 8.7573 0)
(118.897 8.79316 0)
(126.375 9.0704 0)
(136.477 9.35273 0)
(147.437 9.52667 0)
(156.527 9.86184 0)
(163.01 10.5249 0)
(168.652 11.4739 0)
(177.06 12.5801 0)
(194.395 13.7548 0)
(221.628 14.7593 0)
(234.965 14.748 0)
(235.432 14.0835 0)
(223.721 13.1865 0)
(170.645 11.6472 0)
(92.4599 9.72659 0)
(72.3684 8.33598 0)
(71.3687 7.96275 0)
(77.4691 7.83789 0)
(92.699 7.42652 0)
(108.218 7.31068 0)
(114.734 7.69373 0)
(118.03 7.11459 0)
(120.77 5.9274 0)
(124.691 4.45871 0)
(130.457 2.80038 0)
(138.868 1.39618 0)
(148.805 0.480288 0)
(155.759 -0.0320344 0)
(159.139 -0.166962 0)
(161.819 0.315069 0)
(165.808 1.27197 0)
(174.908 2.80821 0)
(192.783 5.16229 0)
(205.376 8.17101 0)
(208.037 10.8422 0)
(201.052 13.8078 0)
(167.489 16.6138 0)
(98.6123 18.6292 0)
(67.833 19.4118 0)
(66.0599 19.5666 0)
(70.0146 19.597 0)
(82.1265 19.4757 0)
(99.8904 19.4628 0)
(110.195 18.9738 0)
(113.394 18.1859 0)
(115.134 17.1707 0)
(117.3 15.8177 0)
(120.805 14.0346 0)
(125.836 12.0686 0)
(133.47 9.91674 0)
(143.512 7.67973 0)
(153.133 5.66387 0)
(159.823 3.91505 0)
(164.887 2.61459 0)
(170.747 1.85939 0)
(181.045 1.5311 0)
(197.339 1.77856 0)
(206.19 2.78495 0)
(207.645 3.98797 0)
(198.145 5.51953 0)
(160.321 7.1551 0)
(99.215 8.29499 0)
(79.0577 8.19664 0)
(79.4643 7.63095 0)
(86.8832 6.71359 0)
(101.265 5.61603 0)
(113.697 4.3133 0)
(118.955 3.26496 0)
(119.996 2.39707 0)
(118.651 1.03977 0)
(117.882 -0.679249 0)
(118.771 -2.23232 0)
(122.814 -3.85264 0)
(129.095 -5.2001 0)
(138.755 -6.18778 0)
(149.958 -6.89596 0)
(157.917 -7.49709 0)
(161.86 -7.77519 0)
(164.953 -7.63806 0)
(169.195 -7.14155 0)
(176.527 -6.04509 0)
(185.46 -4.29399 0)
(189.304 -1.88312 0)
(183.96 0.42167 0)
(164.674 2.6038 0)
(121.859 3.58225 0)
(85.7326 3.63231 0)
(73.4065 3.79502 0)
(75.3975 4.01058 0)
(87.6983 4.02012 0)
(106.868 3.49551 0)
(120.225 2.51659 0)
(122.491 1.27158 0)
(120.57 0.0482773 0)
(119.166 -1.13703 0)
(119.128 -1.83446 0)
(120.698 -1.54554 0)
(124.542 -0.638606 0)
(131.83 1.06332 0)
(142.564 3.2175 0)
(153.685 4.54771 0)
(162.593 4.47335 0)
(170.445 2.73958 0)
(181.061 -0.396448 0)
(191.967 -4.42504 0)
(195.753 -8.06695 0)
(186.374 -11.551 0)
(157.95 -13.7351 0)
(106.031 -12.9643 0)
(79.8456 -10.9425 0)
(73.1049 -9.45203 0)
(80.3831 -7.96727 0)
(98.3879 -5.98901 0)
(114.268 -2.85525 0)
(117.189 1.27204 0)
(112.386 4.87868 0)
(108.301 7.96665 0)
(107.22 9.60901 0)
(109.929 9.67561 0)
(116.923 7.73421 0)
(125.7 4.99922 0)
(133.875 2.76237 0)
(144.229 0.992653 0)
(161.462 -2.49294 0)
(177.645 -9.86763 0)
(178.593 -18.8255 0)
(156.074 -25.6771 0)
(117.019 -28.6947 0)
(93.2558 -27.9929 0)
(98.4524 -26.6577 0)
(120.015 -23.8192 0)
(135.881 -17.7051 0)
(137.248 -12.7052 0)
(139.375 -9.94306 0)
(143.253 -6.4384 0)
(151.797 -3.11854 0)
(166.513 0.893898 0)
(185.589 4.35973 0)
(196.565 8.16164 0)
(197.223 12.9614 0)
(192.66 20.4922 0)
(174.115 23.2165 0)
(147.603 22.6709 0)
(130.106 18.0068 0)
(123.096 13.4692 0)
(118.934 9.89857 0)
(119.048 7.64343 0)
(132.552 5.58196 0)
(144.039 2.26445 0)
(142.635 -0.313629 0)
(135.757 -3.25134 0)
(125.522 -5.07388 0)
(122.767 -5.18185 0)
(124.897 -4.45977 0)
(132.583 -3.10525 0)
(140.515 -1.65081 0)
(142.04 -1.13379 0)
(139.336 -1.16055 0)
(134.272 -2.07464 0)
(131.4 -2.90579 0)
(131.508 -3.1117 0)
(134.714 -2.7796 0)
(139.32 -1.45239 0)
(140.913 -0.223587 0)
(140.02 0.490104 0)
(137.362 0.812293 0)
(135.165 0.435935 0)
(134.928 -0.00973328 0)
(136.114 -0.457127 0)
(138.947 -0.552427 0)
(140.267 -0.390992 0)
(-2372.02 0.233743 0)
(-398.394 6.17307 0)
(91.8548 4.88282 0)
(307.474 1.76928 0)
(358.497 1.60647 0)
(358.49 1.17616 0)
(350.004 -0.11302 0)
(341.411 -2.19676 0)
(333.875 -0.750937 0)
(321.129 2.30411 0)
(300.624 4.1195 0)
(172.828 2.69031 0)
(-136.033 -2.73138 0)
(-225.551 -4.95787 0)
(-216.76 -4.03305 0)
(-185.055 -2.24111 0)
(-141.64 -0.707893 0)
(-97.828 1.54107 0)
(-54.7106 4.48039 0)
(-10.467 6.10493 0)
(35.3659 6.68774 0)
(82.0134 7.45793 0)
(128.467 9.96719 0)
(174.675 11.1702 0)
(222.015 12.4467 0)
(273.741 13.0845 0)
(322.227 13.3624 0)
(348.36 10.7163 0)
(357.59 7.52996 0)
(355.17 5.08813 0)
(302.426 2.18587 0)
(70.7625 0.305105 0)
(-102.868 -1.2275 0)
(-106.728 -3.12283 0)
(-86.7939 -4.71719 0)
(-52.7725 -5.36578 0)
(-23.0978 -4.7495 0)
(-1.49308 -3.88725 0)
(16.7598 -3.41468 0)
(36.0208 -3.48528 0)
(58.1302 -3.95449 0)
(82.826 -5.18457 0)
(108.345 -6.4872 0)
(132.898 -7.26171 0)
(154.972 -8.03026 0)
(174.273 -8.90463 0)
(193.917 -9.15519 0)
(222.71 -8.85997 0)
(270.956 -8.41399 0)
(311.473 -7.93881 0)
(318.207 -7.57145 0)
(299.015 -7.78374 0)
(173.759 -7.53218 0)
(-1.87607 -7.45415 0)
(-26.879 -9.7699 0)
(-20.9336 -11.4324 0)
(-1.38421 -13.2484 0)
(22.2557 -14.3916 0)
(39.3363 -13.8277 0)
(51.5946 -12.2292 0)
(63.6925 -11.0564 0)
(78.0186 -10.6926 0)
(94.7159 -10.7211 0)
(112.474 -10.4522 0)
(129.378 -9.68964 0)
(143.637 -8.65195 0)
(154.451 -7.61441 0)
(162.957 -7.1145 0)
(172.93 -6.77523 0)
(192.159 -6.23854 0)
(229.294 -5.00011 0)
(263.78 -2.16779 0)
(269.164 1.12166 0)
(256.823 3.27986 0)
(178.064 4.79025 0)
(41.9204 5.09024 0)
(9.07477 4.48485 0)
(10.6759 4.31771 0)
(21.8107 4.18551 0)
(41.6002 4.00059 0)
(59.1618 4.80903 0)
(70.9816 6.12019 0)
(80.78 6.83993 0)
(91.3423 7.05011 0)
(103.735 7.10491 0)
(117.86 6.99686 0)
(132.527 6.84494 0)
(145.845 6.53204 0)
(156.496 5.91791 0)
(165.097 4.57354 0)
(174.316 2.56599 0)
(189.562 0.61355 0)
(218.364 -0.870007 0)
(244.914 -0.268836 0)
(248.409 2.17634 0)
(241.48 4.29764 0)
(192.288 7.14721 0)
(82.8967 10.4327 0)
(39.5519 11.2024 0)
(38.9353 11.2797 0)
(44.5148 11.4328 0)
(59.3317 11.167 0)
(76.8489 11.2128 0)
(88.9553 11.9644 0)
(96.7594 12.7081 0)
(103.941 13.1849 0)
(112.541 13.3921 0)
(123.681 13.1973 0)
(136.925 12.3713 0)
(149.899 10.689 0)
(159.795 8.20046 0)
(166.302 4.84037 0)
(171.698 0.836183 0)
(179.988 -3.25156 0)
(197.195 -7.19057 0)
(224.508 -10.677 0)
(237.231 -12.7439 0)
(237.463 -13.8194 0)
(223.071 -13.8598 0)
(158.724 -10.6092 0)
(72.7364 -4.64443 0)
(54.1711 -1.26173 0)
(54.2224 1.1107 0)
(60.5225 3.4961 0)
(74.6853 5.60916 0)
(91.4253 7.45416 0)
(102.451 8.2168 0)
(108.046 8.58015 0)
(112.243 9.03675 0)
(117.464 9.45581 0)
(125.101 9.96716 0)
(135.448 10.3239 0)
(146.783 10.5372 0)
(156.253 10.8499 0)
(163.034 11.5951 0)
(168.978 12.7151 0)
(177.749 14.0481 0)
(195.395 15.5486 0)
(221.583 16.9228 0)
(233.289 16.9421 0)
(232.856 16.2661 0)
(220.069 15.2032 0)
(165.924 13.3171 0)
(88.9032 11.1378 0)
(69.9205 9.84943 0)
(70.5535 9.7065 0)
(77.0605 9.67268 0)
(91.6898 9.42611 0)
(106.701 8.88704 0)
(113.478 8.72648 0)
(116.433 7.92567 0)
(118.724 6.70315 0)
(122.233 5.22172 0)
(127.592 3.75985 0)
(136.467 2.35403 0)
(147.793 1.72346 0)
(156.154 0.822375 0)
(160.436 0.746545 0)
(163.802 1.3782 0)
(168.6 2.52395 0)
(178.656 4.31649 0)
(197.442 6.64943 0)
(210.726 9.71019 0)
(213.411 12.6748 0)
(206.608 15.9376 0)
(172.66 19.174 0)
(101.404 21.4486 0)
(69.0728 22.4051 0)
(67.0425 22.6258 0)
(70.899 22.6683 0)
(82.6463 22.4052 0)
(99.8071 21.8947 0)
(109.188 21.1007 0)
(112.463 20.3387 0)
(114.037 19.4755 0)
(115.62 18.4105 0)
(118.662 16.7425 0)
(123.334 14.7467 0)
(130.689 12.6638 0)
(140.784 10.4078 0)
(150.71 8.16374 0)
(157.795 6.14607 0)
(163.245 4.71261 0)
(169.658 3.95661 0)
(180.822 3.86449 0)
(198.07 4.54264 0)
(207.395 5.89289 0)
(209.086 7.25574 0)
(199.986 8.73629 0)
(162.102 9.97941 0)
(99.2512 10.4075 0)
(77.9545 9.85636 0)
(78.0128 9.11911 0)
(85.1854 8.10425 0)
(99.2223 6.91047 0)
(111.207 5.36313 0)
(116.491 3.82405 0)
(117.292 2.43834 0)
(115.71 0.554487 0)
(115.043 -1.14969 0)
(116.125 -2.37627 0)
(120.568 -3.74878 0)
(127.244 -4.78691 0)
(137.505 -5.51672 0)
(149.004 -6.01613 0)
(157.3 -6.52018 0)
(161.355 -6.86688 0)
(164.782 -6.99448 0)
(169.709 -6.9747 0)
(178.251 -6.39152 0)
(188.482 -4.68201 0)
(193.201 -1.91492 0)
(187.864 1.01676 0)
(168.109 4.00402 0)
(123.062 5.46549 0)
(86.0031 5.57453 0)
(74.168 5.63237 0)
(76.1924 5.72398 0)
(87.9072 5.6502 0)
(106.258 5.12074 0)
(119.069 4.23688 0)
(121.068 2.92059 0)
(119.178 1.47466 0)
(118.283 -0.143199 0)
(118.906 -1.39049 0)
(121.586 -2.05303 0)
(127.046 -1.41967 0)
(135.604 0.277491 0)
(146.077 2.02458 0)
(155.449 3.06116 0)
(161.623 2.34112 0)
(166.802 -0.127027 0)
(175.489 -3.74889 0)
(186.752 -7.97048 0)
(191.706 -11.4162 0)
(183.511 -13.8818 0)
(158.061 -14.9811 0)
(109.685 -13.247 0)
(82.6586 -11.0507 0)
(75.2891 -9.61822 0)
(82.8366 -8.16285 0)
(102.295 -6.07313 0)
(120.373 -2.83935 0)
(124.575 1.56041 0)
(119.472 5.48654 0)
(113.754 9.44695 0)
(111.12 11.6271 0)
(111.91 12.3885 0)
(117.297 11.3962 0)
(126.378 8.82533 0)
(136.805 5.60904 0)
(148.936 1.804 0)
(164.631 -4.19598 0)
(178.074 -13.398 0)
(177.257 -23.0765 0)
(157.643 -29.5709 0)
(121.692 -34.8424 0)
(96.1958 -33.1884 0)
(97.7793 -30.3715 0)
(118.434 -26.9323 0)
(132.154 -20.682 0)
(129.657 -17.6856 0)
(129.49 -14.6971 0)
(132.288 -11.6974 0)
(141.568 -7.87822 0)
(158.77 -2.35042 0)
(178.469 5.10976 0)
(190.974 12.3026 0)
(188.138 17.7062 0)
(182.919 26.5691 0)
(163.811 29.5377 0)
(141.431 29.037 0)
(129.464 24.8281 0)
(125.932 18.5733 0)
(121.988 13.3457 0)
(120.903 10.5156 0)
(132.926 7.87428 0)
(143.328 3.69843 0)
(141.756 0.298627 0)
(134.537 -3.68132 0)
(126.219 -6.45186 0)
(123.778 -7.23224 0)
(126.596 -7.51027 0)
(135.643 -6.49054 0)
(143.044 -4.21339 0)
(142.803 -2.8731 0)
(138.994 -2.0463 0)
(132.826 -1.86607 0)
(130.251 -2.35441 0)
(130.987 -2.68628 0)
(135.429 -2.53595 0)
(140.865 -1.82572 0)
(142.15 -0.954003 0)
(140.935 -0.237548 0)
(137.312 0.225566 0)
(134.446 0.0835974 0)
(134.254 -0.157198 0)
(135.645 -0.391569 0)
(138.994 -0.372808 0)
(140.535 -0.23289 0)
(-2372.08 0.151677 0)
(-436.568 -1.98991 0)
(94.0474 3.69446 0)
(303.151 -0.196155 0)
(356.713 -1.02194 0)
(356.013 -1.17907 0)
(347.183 -2.11346 0)
(340.114 -3.32745 0)
(334.948 -0.694512 0)
(323.307 0.647394 0)
(301.385 1.13194 0)
(167.273 -0.130884 0)
(-142.413 -3.58329 0)
(-225.987 -4.92702 0)
(-214.979 -4.03042 0)
(-182.159 -2.09252 0)
(-138.545 -0.499024 0)
(-95.4831 2.13403 0)
(-53.7681 5.65409 0)
(-10.7021 6.94733 0)
(34.5257 7.59509 0)
(81.2763 8.26558 0)
(128.566 10.6702 0)
(176.141 11.6148 0)
(224.435 12.0751 0)
(275.437 13.1511 0)
(322.389 14.2847 0)
(348.322 12.5764 0)
(356.593 9.99718 0)
(353.788 7.58017 0)
(300.921 5.00719 0)
(70.4215 3.09419 0)
(-102.841 1.42526 0)
(-106.561 -0.226939 0)
(-85.7899 -1.54456 0)
(-50.7272 -2.16066 0)
(-20.0876 -1.74063 0)
(2.07303 -1.36396 0)
(19.9539 -1.09548 0)
(37.9569 -0.971769 0)
(58.6464 -1.86043 0)
(82.3472 -2.68239 0)
(107.762 -3.65401 0)
(132.596 -4.78059 0)
(154.987 -6.00634 0)
(174.569 -7.393 0)
(194.427 -8.36019 0)
(223.552 -8.88904 0)
(272.196 -9.26203 0)
(312.643 -9.17279 0)
(319.897 -8.91922 0)
(299.643 -9.06363 0)
(175.03 -8.72135 0)
(-3.77997 -8.18535 0)
(-31.3161 -10.4904 0)
(-24.5161 -12.1695 0)
(-3.63436 -14.0874 0)
(21.6224 -15.1164 0)
(39.7881 -14.6289 0)
(52.3115 -13.2243 0)
(64.0042 -12.2187 0)
(77.7195 -11.9432 0)
(93.9989 -11.9617 0)
(111.662 -11.7402 0)
(128.649 -11.1903 0)
(142.876 -10.3849 0)
(153.579 -9.58335 0)
(162.034 -8.89744 0)
(172.157 -7.91232 0)
(192.299 -6.66038 0)
(231.017 -4.61118 0)
(266.344 -1.86111 0)
(273.59 0.715108 0)
(260.515 2.43981 0)
(179.566 3.70926 0)
(41.7374 3.98019 0)
(8.50656 3.7713 0)
(9.98985 3.35148 0)
(22.2141 3.2637 0)
(42.8189 3.27348 0)
(60.7345 4.06163 0)
(72.6849 5.65161 0)
(82.4403 6.68791 0)
(92.9465 7.06327 0)
(105.394 7.12169 0)
(119.604 6.84241 0)
(134.098 6.39423 0)
(146.716 5.68151 0)
(156.442 4.49931 0)
(164.184 2.64656 0)
(172.875 0.564214 0)
(188.543 -1.19604 0)
(218.757 -2.30449 0)
(248.125 -1.69375 0)
(253.749 0.543745 0)
(247.29 2.40399 0)
(199.997 5.38529 0)
(88.9881 9.19207 0)
(41.7993 10.2948 0)
(40.2028 10.1217 0)
(45.6031 9.99719 0)
(60.4096 9.3861 0)
(78.0281 9.03005 0)
(90.1517 9.36419 0)
(97.8877 9.76373 0)
(104.972 9.9794 0)
(113.405 9.92225 0)
(124.061 9.36878 0)
(136.347 8.05782 0)
(147.965 5.93948 0)
(156.569 2.98405 0)
(162.069 -0.628987 0)
(166.94 -4.15912 0)
(174.778 -7.31192 0)
(191.538 -10.4245 0)
(219.638 -13.537 0)
(234.713 -15.7691 0)
(235.127 -16.7947 0)
(223.205 -16.9943 0)
(166.011 -14.3575 0)
(78.714 -8.7144 0)
(56.8008 -5.26687 0)
(57.3457 -3.19341 0)
(62.9119 -0.949186 0)
(76.0004 1.23244 0)
(91.8413 3.48041 0)
(102.272 5.04259 0)
(107.42 6.13688 0)
(111.269 7.08895 0)
(116.217 8.01778 0)
(123.65 8.96046 0)
(134.051 9.59593 0)
(145.76 9.939 0)
(155.707 10.4529 0)
(162.871 11.3799 0)
(169.153 12.5551 0)
(178.278 14.0093 0)
(196.014 15.6256 0)
(220.9 16.7841 0)
(231.144 16.4469 0)
(229.946 15.6349 0)
(216.138 14.4228 0)
(160.842 12.4044 0)
(85.1714 10.2675 0)
(67.7857 9.16328 0)
(69.1924 9.10128 0)
(76.2097 8.85518 0)
(90.0416 8.1971 0)
(104.649 7.33751 0)
(111.989 7.04974 0)
(114.829 6.65408 0)
(117.011 6.07995 0)
(119.901 5.11177 0)
(125.179 4.18199 0)
(134.505 3.34751 0)
(146.573 2.08648 0)
(156.282 2.20137 0)
(161.692 2.08316 0)
(165.813 2.77701 0)
(171.327 4.31536 0)
(182.086 6.38885 0)
(201.339 8.44497 0)
(215.332 10.6696 0)
(218.131 12.6489 0)
(211.554 14.7807 0)
(177.888 17.2273 0)
(104.907 19.67 0)
(70.6059 20.8754 0)
(68.2757 21.248 0)
(72.0625 21.6323 0)
(83.118 21.7188 0)
(99.6525 21.2359 0)
(108.745 20.3772 0)
(112.255 19.8238 0)
(113.507 19.1947 0)
(114.462 18.4051 0)
(117.011 17.2903 0)
(121.34 15.688 0)
(128.39 14.0361 0)
(138.499 12.3417 0)
(148.61 10.7158 0)
(155.931 9.15938 0)
(161.747 8.09147 0)
(168.808 7.61623 0)
(181.011 7.85551 0)
(199.182 8.62433 0)
(208.917 9.66827 0)
(210.769 10.6281 0)
(201.515 11.3672 0)
(162.642 11.6151 0)
(98.2183 11.1301 0)
(76.6242 10.0686 0)
(76.5101 9.08149 0)
(83.4506 7.7795 0)
(97.0972 6.28172 0)
(108.61 4.45852 0)
(113.815 2.64979 0)
(114.399 1.08018 0)
(113.075 -0.760373 0)
(112.811 -1.84373 0)
(114.185 -2.42227 0)
(118.853 -2.82289 0)
(125.954 -2.98611 0)
(136.482 -3.09307 0)
(147.916 -3.2628 0)
(156.023 -3.77743 0)
(160.299 -4.45612 0)
(163.819 -4.98057 0)
(169.422 -5.08313 0)
(179.557 -4.32979 0)
(191.515 -2.61501 0)
(197.594 -0.0442124 0)
(192.632 2.9207 0)
(172.66 5.96516 0)
(124.87 7.48087 0)
(86.1459 7.42383 0)
(74.7099 7.3455 0)
(76.5799 7.2751 0)
(87.7882 7.01218 0)
(105.543 6.44423 0)
(117.75 5.50374 0)
(119.405 4.25607 0)
(117.449 2.83114 0)
(116.749 1.15582 0)