/*--------------------------------*- C++ -*----------------------------------*\
| =========                 |                                                 |
| \\      /  F ield         | OpenFOAM: The Open Source CFD Toolbox           |
|  \\    /   O peration     | Version:  2306                                  |
|   \\  /    A nd           | Website:  www.openfoam.com                      |
|    \\/     M anipulation  |                                                 |
\*---------------------------------------------------------------------------*/
FoamFile
{
    version     2.0;
    format      ascii;
    arch        "LSB;label=32;scalar=64";
    class       volVectorField;
    location    "0.14";
    object      U;
}
// * * * * * * * * * * * * * * * * * * * * * * * * * * * * * * * * * * * * * //

dimensions      [0 1 -1 0 0 0 0];

internalField   nonuniform List<vector> 
6000
(
(500 2.46298e-14 0)
(500 -1.92355e-14 0)
(500 -9.58892e-14 0)
(500 -2.15939e-14 0)
(500 6.33211e-14 0)
(500 1.93363e-14 0)
(500 -1.38304e-13 0)
(500 -1.46129e-13 0)
(500 -1.67623e-13 0)
(500 -1.8495e-13 0)
(500 -9.04792e-14 0)
(500 -2.99657e-14 0)
(500 9.06348e-14 0)
(500 1.28993e-14 0)
(500 2.34488e-14 0)
(500 -4.64553e-14 0)
(500 -9.66677e-14 0)
(500 -9.63346e-14 0)
(500 -2.21628e-14 0)
(500 -6.48344e-14 0)
(500 -3.22107e-14 0)
(500 -1.48895e-14 0)
(500 -5.61283e-16 0)
(500 -3.63981e-14 0)
(500 -1.20371e-13 0)
(500 -1.07669e-14 0)
(500 4.75084e-15 0)
(500 5.15631e-14 0)
(500 -1.01132e-14 0)
(500 -2.52756e-14 0)
(500 -1.5387e-14 0)
(500 2.17198e-14 0)
(500 1.22106e-13 0)
(500 4.9959e-14 0)
(500 1.71749e-13 0)
(500 1.32614e-13 0)
(500 9.37186e-14 0)
(500 7.34696e-14 0)
(500 3.23939e-14 0)
(500 4.92911e-14 0)
(500 5.21775e-14 0)
(500 1.68943e-13 0)
(500 2.29061e-13 0)
(500 2.26556e-13 0)
(500 1.86798e-13 0)
(500 9.2633e-14 0)
(500 1.09145e-13 0)
(500 9.00017e-14 0)
(500 -3.08123e-14 0)
(500 -1.08616e-13 0)
(500 -9.07998e-15 0)
(500 9.86465e-14 0)
(500 4.77216e-14 0)
(500 2.27125e-13 0)
(500 -1.07121e-12 0)
(500 2.37061e-12 0)
(500 1.92475e-12 0)
(500 -4.59322e-11 0)
(500 2.29529e-10 0)
(500 -5.07535e-10 0)
(500 5.77684e-10 0)
(500 2.35537e-09 0)
(500 -4.57587e-09 0)
(500 -1.2442e-08 0)
(500 1.47459e-07 0)
(500 -4.8207e-07 0)
(499.999 7.27272e-07 0)
(499.997 1.65525e-06 0)
(499.994 -1.08764e-05 0)
(499.986 3.17111e-05 0)
(499.97 -3.97535e-05 0)
(499.937 1.05636e-06 0)
(499.876 0.0001506 0)
(499.771 -0.000226137 0)
(499.615 9.75147e-05 0)
(499.445 0.000506818 0)
(499.353 -0.0002892 0)
(499.344 -4.6006e-05 0)
(499.352 -2.04675e-05 0)
(499.386 3.25313e-07 0)
(499.47 0.000172826 0)
(499.619 0.000411447 0)
(499.834 -0.00043107 0)
(500.109 -0.000107906 0)
(500.425 0.0018492 0)
(500.769 -0.000362919 0)
(501.126 -0.00295664 0)
(501.485 0.00151012 0)
(501.835 0.00525362 0)
(502.179 -0.000906171 0)
(502.515 -0.00500595 0)
(502.835 0.00140252 0)
(503.132 0.00749875 0)
(503.414 0.000240856 0)
(503.68 -0.00667385 0)
(503.923 -0.0011394 0)
(504.132 0.00762028 0)
(504.314 0.00318071 0)
(504.473 -0.00495626 0)
(504.61 -0.00383159 0)
(504.721 0.00260609 0)
(504.81 0.00433339 0)
(504.889 -0.000410932 0)
(504.96 -0.00329856 0)
(505.024 -0.00174675 0)
(505.079 0.00190752 0)
(505.129 0.00272046 0)
(505.18 -0.000587785 0)
(505.229 -0.00222867 0)
(505.274 -0.00102406 0)
(505.301 0.000570406 0)
(505.311 0.000868833 0)
(505.312 0.000357467 0)
(505.312 -0.000491131 0)
(505.311 -0.000556595 0)
(505.308 -3.68397e-05 0)
(505.302 0.000203875 0)
(505.293 0.000220455 0)
(505.281 7.9509e-05 0)
(505.265 -0.000274296 0)
(505.246 -0.000542676 0)
(505.224 6.75369e-05 0)
(505.202 0.000272586 0)
(505.182 0.000127058 0)
(505.165 -0.000207218 0)
(505.153 -0.000217193 0)
(505.144 -5.30198e-05 0)
(505.137 7.74953e-05 0)
(505.132 9.02619e-05 0)
(505.129 4.33975e-05 0)
(505.125 2.39803e-05 0)
(505.121 2.5084e-05 0)
(505.118 2.16377e-05 0)
(505.115 9.64805e-06 0)
(505.112 -1.16633e-05 0)
(505.11 -2.24206e-05 0)
(505.109 -1.79946e-05 0)
(505.109 -1.56055e-06 0)
(505.11 1.86491e-05 0)
(505.112 4.14715e-06 0)
(505.113 -1.34642e-05 0)
(505.114 -3.92141e-05 0)
(505.117 -5.72479e-05 0)
(505.12 -4.306e-05 0)
(505.126 -1.37049e-05 0)
(505.133 1.27472e-05 0)
(505.143 3.84646e-05 0)
(505.153 6.77136e-05 0)
(505.163 6.74999e-05 0)
(505.173 5.42564e-05 0)
(505.181 2.24477e-05 0)
(505.188 -2.49229e-05 0)
(505.195 -2.33123e-05 0)
(505.2 -2.46108e-05 0)
(505.202 3.32008e-07 0)
(505.203 2.34039e-05 0)
(505.203 2.92986e-05 0)
(505.203 -1.66019e-07 0)
(505.202 -4.184e-05 0)
(505.201 -5.99229e-05 0)
(505.198 -6.72433e-05 0)
(505.194 -3.80393e-05 0)
(505.188 -3.82498e-06 0)
(505.182 3.14437e-05 0)
(505.176 4.19867e-05 0)
(505.17 2.40313e-05 0)
(505.164 -1.01024e-05 0)
(505.159 -3.16258e-05 0)
(505.155 -6.29155e-05 0)
(505.151 -8.75367e-05 0)
(505.148 -7.19062e-05 0)
(505.146 -9.40804e-06 0)
(505.144 4.85046e-05 0)
(505.143 0.000109609 0)
(505.141 0.000132145 0)
(505.14 9.57866e-05 0)
(505.137 3.13776e-05 0)
(505.133 -3.10586e-05 0)
(505.128 -6.19664e-05 0)
(505.122 -6.86017e-05 0)
(505.117 -8.3549e-05 0)
(505.114 -6.95788e-05 0)
(505.114 3.00923e-05 0)
(505.114 8.1241e-05 0)
(505.116 0.000116989 0)
(505.118 9.33366e-05 0)
(505.122 7.87735e-05 0)
(505.128 2.05745e-05 0)
(505.136 -4.15384e-05 0)
(505.145 -0.000110715 0)
(505.154 -0.000162802 0)
(505.163 -0.000122616 0)
(505.171 -5.27809e-05 0)
(505.177 -1.95583e-05 0)
(505.181 4.67019e-05 0)
(505.185 8.67121e-05 0)
(505.188 0.000117638 0)
(505.192 9.41077e-05 0)
(505.195 2.55206e-06 0)
(505.198 -1.61384e-05 0)
(505.2 -4.53985e-05 0)
(505.2 -6.64456e-05 0)
(505.201 -3.60894e-05 0)
(505.2 3.79052e-06 0)
(505.199 2.41013e-05 0)
(505.197 4.7949e-05 0)
(505.193 4.53783e-05 0)
(505.189 3.02486e-05 0)
(505.183 -1.06899e-05 0)
(505.178 -5.52633e-05 0)
(505.173 -0.00011026 0)
(505.167 -0.000104127 0)
(505.162 -6.25347e-05 0)
(505.157 -2.18796e-05 0)
(505.153 3.22015e-05 0)
(505.15 6.88993e-05 0)
(505.147 7.53023e-05 0)
(505.145 6.439e-05 0)
(505.144 2.9123e-05 0)
(505.144 -5.96957e-06 0)
(505.144 3.05057e-06 0)
(505.143 3.20365e-05 0)
(505.141 4.75436e-05 0)
(505.138 6.5725e-05 0)
(505.135 5.45494e-05 0)
(505.132 3.21919e-05 0)
(505.127 -2.25062e-07 0)
(505.121 -4.68361e-05 0)
(505.116 -0.00010375 0)
(505.113 -0.000110651 0)
(505.112 -8.09275e-05 0)
(505.111 1.62778e-05 0)
(505.112 6.94417e-05 0)
(505.113 7.58764e-05 0)
(505.117 5.7182e-05 0)
(505.123 2.37368e-05 0)
(505.133 -5.92818e-05 0)
(505.145 -9.79676e-05 0)
(505.157 -0.000122094 0)
(505.168 -8.78218e-05 0)
(505.176 2.2022e-05 0)
(505.18 0.00016516 0)
(505.183 0.00019066 0)
(505.185 0.000166061 0)
(505.188 4.26681e-05 0)
(505.191 -9.1877e-05 0)
(505.194 -0.000124175 0)
(505.199 -0.000148399 0)
(505.202 -0.000114777 0)
(505.204 -1.494e-05 0)
(505.204 8.82359e-05 0)
(505.203 0.000108027 0)
(505.202 8.91063e-05 0)
(505.201 4.32069e-05 0)
(505.2 -5.75844e-05 0)
(505.199 -0.000132137 0)
(505.195 -0.000148077 0)
(505.19 -0.000141855 0)
(505.182 -8.44369e-05 0)
(505.174 6.18465e-05 0)
(505.166 0.000144791 0)
(505.159 0.000169072 0)
(505.153 0.000145119 0)
(505.151 2.34153e-05 0)
(505.15 -0.000120111 0)
(505.149 -0.000155139 0)
(505.148 -0.000146671 0)
(505.147 -0.000104349 0)
(505.145 1.92555e-05 0)
(505.142 9.88887e-05 0)
(505.14 0.000105176 0)
(505.138 9.5029e-05 0)
(505.136 5.93302e-05 0)
(505.134 -2.76966e-05 0)
(505.131 -9.85752e-05 0)
(505.126 -0.000114109 0)
(505.119 -8.69425e-05 0)
(505.112 -4.26594e-05 0)
(505.105 6.51794e-05 0)
(505.101 0.000120786 0)
(505.1 0.000104642 0)
(505.101 2.0362e-05 0)
(505.103 -4.56567e-05 0)
(505.107 -0.000115506 0)
(505.113 -0.000175936 0)
(505.121 -0.00015602 0)
(505.132 -0.000100242 0)
(505.144 9.82203e-05 0)
(505.157 0.00024466 0)
(505.169 0.000292613 0)
(505.178 0.000293549 0)
(505.184 0.000149872 0)
(505.188 -6.1523e-05 0)
(505.192 -0.000183664 0)
(505.195 -0.000220041 0)
(505.198 -0.000213291 0)
(505.201 -8.17807e-05 0)
(505.204 7.18199e-05 0)
(505.208 0.000127058 0)
(505.212 9.78568e-05 0)
(500 -3.58268e-14 0)
(500 -2.63718e-13 0)
(500 -2.59872e-13 0)
(500 -1.86941e-13 0)
(500 9.6345e-14 0)
(500 -1.88733e-13 0)
(500 -4.70489e-13 0)
(500 -2.90666e-13 0)
(500 -3.10746e-13 0)
(500 -2.38223e-13 0)
(500 -1.52173e-13 0)
(500 1.18963e-14 0)
(500 2.29177e-13 0)
(500 -8.41456e-14 0)
(500 -1.23138e-13 0)
(500 -3.3576e-13 0)
(500 -3.83543e-13 0)
(500 -2.98177e-13 0)
(500 -2.59679e-13 0)
(500 -3.46101e-13 0)
(500 -2.91016e-13 0)
(500 -3.28917e-13 0)
(500 -2.74545e-13 0)
(500 -3.473e-13 0)
(500 -2.74591e-13 0)
(500 -1.44258e-13 0)
(500 -8.70492e-14 0)
(500 -3.27388e-15 0)
(500 -1.08099e-13 0)
(500 2.28339e-14 0)
(500 9.26582e-14 0)
(500 2.3068e-13 0)
(500 3.37192e-13 0)
(500 1.67814e-13 0)
(500 4.04184e-13 0)
(500 3.61377e-13 0)
(500 2.14622e-13 0)
(500 1.76457e-13 0)
(500 2.26554e-13 0)
(500 2.69152e-13 0)
(500 1.81842e-13 0)
(500 1.8332e-13 0)
(500 3.33773e-13 0)
(500 3.24334e-13 0)
(500 3.62969e-13 0)
(500 3.26751e-13 0)
(500 1.41215e-13 0)
(500 -6.06085e-15 0)
(500 8.64899e-14 0)
(500 -1.02993e-13 0)
(500 -3.94473e-14 0)
(500 3.47406e-15 0)
(500 5.08611e-14 0)
(500 1.82472e-13 0)
(500 -1.3813e-12 0)
(500 2.86806e-12 0)
(500 4.31593e-12 0)
(500 -7.46891e-11 0)
(500 3.33029e-10 0)
(500 -8.14606e-10 0)
(500 2.61019e-10 0)
(500 5.48685e-09 0)
(500 -1.82955e-08 0)
(500 6.06369e-09 0)
(500 1.7148e-07 0)
(500 -6.05478e-07 0)
(499.999 6.30062e-07 0)
(499.997 3.21111e-06 0)
(499.994 -1.7142e-05 0)
(499.986 3.93915e-05 0)
(499.97 -4.26196e-05 0)
(499.937 -4.90855e-05 0)
(499.876 0.000261475 0)
(499.771 -0.000365222 0)
(499.615 -0.000130033 0)
(499.445 0.000921628 0)
(499.353 -0.000455289 0)
(499.344 -0.000199947 0)
(499.351 -0.000143463 0)
(499.386 -9.88473e-05 0)
(499.47 0.000165046 0)
(499.619 0.00029619 0)
(499.834 -0.000405521 0)
(500.108 0.000389664 0)
(500.425 0.00142615 0)
(500.77 -0.00152142 0)
(501.126 -0.00296443 0)
(501.483 0.00257092 0)
(501.836 0.00430279 0)
(502.182 -0.00269394 0)
(502.515 -0.00522861 0)
(502.833 0.00363004 0)
(503.133 0.00727165 0)
(503.418 -0.00189101 0)
(503.682 -0.00803034 0)
(503.921 0.000199087 0)
(504.131 0.00820882 0)
(504.317 0.00268515 0)
(504.476 -0.00591464 0)
(504.61 -0.00391458 0)
(504.72 0.00374901 0)
(504.811 0.00443551 0)
(504.892 -0.000555218 0)
(504.961 -0.00381681 0)
(505.023 -0.00167593 0)
(505.079 0.00269302 0)
(505.131 0.00306559 0)
(505.182 -0.00050164 0)
(505.23 -0.00272189 0)
(505.274 -0.000997707 0)
(505.301 0.000861341 0)
(505.311 0.00123295 0)
(505.313 0.000670819 0)
(505.312 -0.000488671 0)
(505.311 -0.000721347 0)
(505.308 -0.000261903 0)
(505.303 0.000281944 0)
(505.294 0.000370795 0)
(505.281 0.000275357 0)
(505.265 -6.22662e-05 0)
(505.245 -0.000373282 0)
(505.224 7.80728e-05 0)
(505.202 0.000379052 0)
(505.182 6.03485e-05 0)
(505.166 -0.000449792 0)
(505.153 -0.000460993 0)
(505.144 -0.000166466 0)
(505.137 0.000156635 0)
(505.132 0.000282004 0)
(505.129 0.000138696 0)
(505.125 2.09249e-05 0)
(505.121 1.48412e-05 0)
(505.118 4.97282e-06 0)
(505.115 -3.09976e-05 0)
(505.112 -1.78745e-05 0)
(505.11 1.36485e-05 0)
(505.109 6.28373e-05 0)
(505.109 0.000151694 0)
(505.11 0.000152069 0)
(505.112 1.98312e-05 0)
(505.113 -6.4205e-05 0)
(505.115 -0.000169016 0)
(505.117 -0.000260947 0)
(505.12 -0.00016424 0)
(505.126 -3.0951e-05 0)
(505.133 4.16256e-05 0)
(505.143 0.000103477 0)
(505.153 0.00017166 0)
(505.163 0.00016496 0)
(505.173 0.000110228 0)
(505.181 -4.88526e-06 0)
(505.189 -0.00014327 0)
(505.195 -7.79697e-05 0)
(505.2 -8.08507e-05 0)
(505.202 -2.01004e-05 0)
(505.203 6.73457e-05 0)
(505.203 0.000137826 0)
(505.203 0.00012343 0)
(505.202 2.99387e-05 0)
(505.201 -6.86188e-05 0)
(505.198 -0.00016284 0)
(505.194 -0.000154646 0)
(505.189 -0.000110665 0)
(505.182 -3.75739e-06 0)
(505.176 0.000118905 0)
(505.17 0.000138606 0)
(505.164 9.60773e-05 0)
(505.159 6.29926e-05 0)
(505.155 -2.01508e-05 0)
(505.151 -0.000119601 0)
(505.148 -0.000185874 0)
(505.146 -0.000182328 0)
(505.144 -0.000152232 0)
(505.143 5.1717e-06 0)
(505.142 0.000235837 0)
(505.14 0.000301283 0)
(505.137 0.000276697 0)
(505.133 0.000210957 0)
(505.128 2.14239e-05 0)
(505.122 -8.19334e-05 0)
(505.117 -0.000262754 0)
(505.114 -0.000375943 0)
(505.114 -0.000381771 0)
(505.115 -0.00016595 0)
(505.116 0.000211595 0)
(505.118 0.000319858 0)
(505.122 0.000357697 0)
(505.128 0.000394833 0)
(505.135 0.000278481 0)
(505.145 -4.11528e-05 0)
(505.154 -0.000370154 0)
(505.163 -0.000462431 0)
(505.171 -0.000398324 0)
(505.177 -0.000248786 0)
(505.181 -1.72134e-05 0)
(505.185 0.000137916 0)
(505.188 0.000277133 0)
(505.192 0.000244653 0)
(505.195 8.29774e-05 0)
(505.198 -6.46009e-06 0)
(505.2 -0.000129186 0)
(505.201 -0.000177004 0)
(505.201 -0.000163096 0)
(505.2 -9.64022e-05 0)
(505.199 -4.63273e-05 0)
(505.197 7.72028e-05 0)
(505.193 0.000142293 0)
(505.189 0.00012978 0)
(505.183 0.000145812 0)
(505.178 0.000118144 0)
(505.172 -0.000139229 0)
(505.167 -0.000364204 0)
(505.162 -0.000321873 0)
(505.157 -0.000286919 0)
(505.153 -0.000201782 0)
(505.15 -1.70656e-05 0)
(505.147 0.000175885 0)
(505.145 0.00024563 0)
(505.144 0.000277052 0)
(505.144 0.000199264 0)
(505.144 4.36083e-05 0)
(505.142 3.33252e-05 0)
(505.141 5.33679e-05 0)
(505.138 9.76872e-05 0)
(505.135 0.000130241 0)
(505.132 0.000124061 0)
(505.127 0.000121937 0)
(505.121 9.21808e-05 0)
(505.116 -0.000127141 0)
(505.113 -0.000236311 0)
(505.112 -0.000243217 0)
(505.111 -0.000170082 0)
(505.112 3.62607e-06 0)
(505.113 0.000118719 0)
(505.117 0.000199544 0)
(505.123 0.000214728 0)
(505.133 8.70738e-05 0)
(505.145 -7.2757e-05 0)
(505.157 -0.000251407 0)
(505.168 -0.000413214 0)
(505.176 -0.000311042 0)
(505.18 0.000139495 0)
(505.183 0.000311473 0)
(505.185 0.000396876 0)
(505.188 0.000351599 0)
(505.191 8.95029e-05 0)
(505.194 -6.45875e-06 0)
(505.198 -0.000176629 0)
(505.202 -0.000266274 0)
(505.204 -0.000308755 0)
(505.204 -0.000123032 0)
(505.203 8.6033e-05 0)
(505.202 0.000164701 0)
(505.201 0.000247547 0)
(505.2 0.000246765 0)
(505.198 -4.29708e-07 0)
(505.195 -0.000247368 0)
(505.189 -0.000389238 0)
(505.182 -0.000464186 0)
(505.174 -0.000332901 0)
(505.166 -5.23309e-05 0)
(505.159 0.000233077 0)
(505.153 0.000442579 0)
(505.151 0.00046483 0)
(505.15 0.000229504 0)
(505.149 -2.80641e-05 0)
(505.148 -0.000206835 0)
(505.147 -0.000360936 0)
(505.145 -0.000342253 0)
(505.143 -0.000108228 0)
(505.141 3.24132e-05 0)
(505.138 0.000150585 0)
(505.136 0.000269517 0)
(505.134 0.000275427 0)
(505.131 2.23931e-05 0)
(505.126 -0.000154266 0)
(505.119 -0.000248793 0)
(505.112 -0.00025218 0)
(505.105 -3.37728e-05 0)
(505.101 0.000153104 0)
(505.1 0.000276446 0)
(505.101 0.000288943 0)
(505.103 0.000231356 0)
(505.106 8.08224e-05 0)
(505.112 -0.000164023 0)
(505.121 -0.000411619 0)
(505.132 -0.00057081 0)
(505.144 -0.000331683 0)
(505.158 6.04795e-05 0)
(505.169 0.000300957 0)
(505.178 0.000515408 0)
(505.184 0.000558943 0)
(505.188 0.000361376 0)
(505.192 9.65165e-05 0)
(505.195 -9.99492e-05 0)
(505.198 -0.000447873 0)
(505.201 -0.000505443 0)
(505.205 -0.000324844 0)
(505.208 -0.000171642 0)
(505.212 0.000122605 0)
(500 -1.90411e-13 0)
(500 -3.3334e-13 0)
(500 -2.91041e-13 0)
(500 -1.60354e-13 0)
(500 -9.84979e-14 0)
(500 -2.21738e-13 0)
(500 -2.69979e-13 0)
(500 -1.64237e-13 0)
(500 -1.2392e-13 0)
(500 -5.10895e-14 0)
(500 -1.34289e-13 0)
(500 -1.69683e-13 0)
(500 6.64133e-15 0)
(500 -2.36302e-13 0)
(500 -3.63521e-13 0)
(500 -3.54258e-13 0)
(500 -3.51828e-13 0)
(500 -3.58281e-13 0)
(500 -4.99832e-13 0)
(500 -6.33258e-13 0)
(500 -4.72674e-13 0)
(500 -6.99475e-13 0)
(500 -6.46241e-13 0)
(500 -5.37045e-13 0)
(500 -2.18163e-13 0)
(500 -9.60154e-14 0)
(500 -7.50499e-14 0)
(500 2.2121e-14 0)
(500 2.55767e-14 0)
(500 3.77095e-14 0)
(500 1.84849e-13 0)
(500 3.57216e-13 0)
(500 4.08388e-13 0)
(500 3.55989e-13 0)
(500 3.9458e-13 0)
(500 3.95925e-13 0)
(500 3.13905e-13 0)
(500 2.90687e-13 0)
(500 4.83136e-13 0)
(500 3.69401e-13 0)
(500 2.99206e-13 0)
(500 2.95089e-13 0)
(500 3.03069e-13 0)
(500 2.70967e-13 0)
(500 4.10435e-13 0)
(500 4.35412e-13 0)
(500 3.00289e-13 0)
(500 3.26848e-13 0)
(500 3.11985e-13 0)
(500 -5.66469e-14 0)
(500 -1.48214e-13 0)
(500 -2.69697e-13 0)
(500 -2.04627e-13 0)
(500 7.82318e-14 0)
(500 -2.23729e-12 0)
(500 5.20196e-12 0)
(500 1.89859e-12 0)
(500 -9.33136e-11 0)
(500 4.78048e-10 0)
(500 -1.22948e-09 0)
(500 7.7814e-10 0)
(500 6.80295e-09 0)
(500 -2.5256e-08 0)
(500 1.35617e-08 0)
(500 2.1686e-07 0)
(500 -8.29179e-07 0)
(499.999 9.96496e-07 0)
(499.997 3.8451e-06 0)
(499.994 -2.17379e-05 0)
(499.986 5.29287e-05 0)
(499.97 -5.71633e-05 0)
(499.937 -5.97967e-05 0)
(499.876 0.000332163 0)
(499.771 -0.000420436 0)
(499.615 -0.000292716 0)
(499.445 0.00134644 0)
(499.353 -0.00057629 0)
(499.344 -0.000321101 0)
(499.351 -0.00025161 0)
(499.386 -0.000144864 0)
(499.47 0.000261317 0)
(499.619 0.000170568 0)
(499.834 -0.000445504 0)
(500.108 0.00119185 0)
(500.425 0.00121271 0)
(500.77 -0.00314073 0)
(501.126 -0.0023518 0)
(501.483 0.00461353 0)
(501.836 0.00292591 0)
(502.183 -0.00564424 0)
(502.515 -0.00413013 0)
(502.831 0.00715122 0)
(503.133 0.00616629 0)
(503.419 -0.00563642 0)
(503.682 -0.00855538 0)
(503.919 0.00365328 0)
(504.13 0.00881169 0)
(504.318 0.000131088 0)
(504.477 -0.00743217 0)
(504.61 -0.00230618 0)
(504.719 0.00534438 0)
(504.812 0.00367587 0)
(504.893 -0.00204922 0)
(504.961 -0.00451148 0)
(505.023 -0.00085197 0)
(505.078 0.00370837 0)
(505.131 0.00289585 0)
(505.183 -0.00107304 0)
(505.231 -0.00316295 0)
(505.274 -0.000584933 0)
(505.301 0.00131155 0)
(505.311 0.00129145 0)
(505.313 0.000538674 0)
(505.312 -0.00070458 0)
(505.311 -0.000868233 0)
(505.309 -0.000522811 0)
(505.303 0.000237151 0)
(505.294 0.000430333 0)
(505.282 0.000212184 0)
(505.265 -0.000336101 0)
(505.245 -0.000500383 0)
(505.223 0.000246901 0)
(505.202 0.00053481 0)
(505.182 -7.6261e-05 0)
(505.166 -0.000542799 0)
(505.153 -0.000475039 0)
(505.144 -0.000153966 0)
(505.137 0.00018148 0)
(505.132 0.000331008 0)
(505.128 0.000253961 0)
(505.125 8.28085e-05 0)
(505.121 3.94128e-05 0)
(505.118 1.06706e-05 0)
(505.115 -7.73628e-05 0)
(505.112 -0.000110556 0)
(505.11 -4.17129e-05 0)
(505.11 6.05882e-05 0)
(505.109 0.000181525 0)
(505.11 0.000272905 0)
(505.112 9.58255e-05 0)
(505.113 -4.96817e-05 0)
(505.114 -0.000182403 0)
(505.117 -0.000306517 0)
(505.12 -0.000260225 0)
(505.126 -0.000114966 0)
(505.134 3.50427e-06 0)
(505.143 0.000103988 0)
(505.153 0.000197494 0)
(505.163 0.000209491 0)
(505.173 0.000170447 0)
(505.181 9.73323e-05 0)
(505.189 -0.000198833 0)
(505.195 -0.000191087 0)
(505.2 -0.000200562 0)
(505.202 -0.000147766 0)
(505.203 9.2957e-06 0)
(505.203 0.000190762 0)
(505.203 0.000252957 0)
(505.202 0.000188479 0)
(505.2 -4.21174e-05 0)
(505.198 -0.000182884 0)
(505.194 -0.000190267 0)
(505.189 -0.000152508 0)
(505.183 -3.4994e-05 0)
(505.176 0.000127492 0)
(505.17 8.19328e-05 0)
(505.164 4.87004e-05 0)
(505.159 4.89568e-05 0)
(505.155 -1.87389e-05 0)
(505.151 -0.000106481 0)
(505.148 -0.000169112 0)
(505.146 -0.000186378 0)
(505.144 -0.000150467 0)
(505.143 4.48918e-05 0)
(505.142 0.000235173 0)
(505.14 0.000285297 0)
(505.137 0.000292029 0)
(505.133 0.000248263 0)
(505.128 0.000120415 0)
(505.122 1.06857e-05 0)
(505.117 -0.00021049 0)
(505.114 -0.00041039 0)
(505.114 -0.000370292 0)
(505.115 -3.82243e-05 0)
(505.117 0.000161193 0)
(505.119 0.00025532 0)
(505.122 0.000401537 0)
(505.128 0.000494037 0)
(505.135 0.000313041 0)
(505.144 -0.000102343 0)
(505.154 -0.000406893 0)
(505.163 -0.000490449 0)
(505.171 -0.000459343 0)
(505.177 -0.00026632 0)
(505.182 -3.43117e-05 0)
(505.185 0.000137134 0)
(505.188 0.000322792 0)
(505.191 0.000308926 0)
(505.195 0.000103409 0)
(505.198 -5.01804e-05 0)
(505.2 -0.000197746 0)
(505.201 -0.000222313 0)
(505.201 -0.000170967 0)
(505.201 -3.76921e-05 0)
(505.199 3.58701e-05 0)
(505.197 0.000146837 0)
(505.193 0.000204539 0)
(505.189 0.000162425 0)
(505.184 0.000136471 0)
(505.178 7.40031e-05 0)
(505.172 -0.000142772 0)
(505.167 -0.000460412 0)
(505.162 -0.000421053 0)
(505.157 -0.000353055 0)
(505.153 -0.000234341 0)
(505.15 -6.25108e-05 0)
(505.147 0.000156385 0)
(505.145 0.000262788 0)
(505.144 0.000289238 0)
(505.143 0.00028516 0)
(505.143 0.000127042 0)
(505.142 3.75888e-05 0)
(505.141 9.25851e-05 0)
(505.138 0.00013441 0)
(505.136 0.000146641 0)
(505.132 0.000133227 0)
(505.127 0.000120342 0)
(505.121 0.000142316 0)
(505.116 -6.08094e-05 0)
(505.113 -0.0002755 0)
(505.111 -0.000287886 0)
(505.111 -0.000134216 0)
(505.112 -3.08294e-06 0)
(505.113 0.000119182 0)
(505.117 0.000209093 0)
(505.123 0.000194626 0)
(505.133 8.58387e-05 0)
(505.145 -5.69226e-05 0)
(505.157 -0.000298857 0)
(505.168 -0.000495717 0)
(505.176 -0.000415307 0)
(505.181 4.41905e-05 0)
(505.183 0.000365415 0)
(505.186 0.00045962 0)
(505.188 0.000412241 0)
(505.191 0.000143271 0)
(505.194 2.51289e-07 0)
(505.198 -0.000188441 0)
(505.202 -0.000267508 0)
(505.204 -0.000274482 0)
(505.204 -0.000115804 0)
(505.203 3.51816e-05 0)
(505.203 9.54145e-05 0)
(505.202 0.000182141 0)
(505.2 0.000271244 0)
(505.198 9.54423e-05 0)
(505.194 -0.000132086 0)
(505.189 -0.000312131 0)
(505.182 -0.000425378 0)
(505.174 -0.000409704 0)
(505.166 -0.00018225 0)
(505.159 0.000146163 0)
(505.154 0.000373245 0)
(505.151 0.000507446 0)
(505.149 0.000384161 0)
(505.149 0.000141147 0)
(505.148 -8.16596e-05 0)
(505.146 -0.000279866 0)
(505.145 -0.00034283 0)
(505.143 -0.000223231 0)
(505.141 -0.000106074 0)
(505.139 6.88322e-05 0)
(505.136 0.000271828 0)
(505.134 0.000395091 0)
(505.13 0.000187173 0)
(505.126 -6.12324e-05 0)
(505.119 -0.000179837 0)
(505.111 -0.000208575 0)
(505.105 -0.000116882 0)
(505.101 5.43774e-05 0)
(505.1 0.000212502 0)
(505.101 0.00028016 0)
(505.103 0.000289917 0)
(505.106 0.000219315 0)
(505.112 -3.03306e-05 0)
(505.12 -0.000414519 0)
(505.131 -0.000690556 0)
(505.144 -0.000520947 0)
(505.158 -9.30488e-05 0)
(505.17 0.000357608 0)
(505.179 0.000558773 0)
(505.184 0.000642316 0)
(505.188 0.000662349 0)
(505.192 0.000539293 0)
(505.194 0.000118979 0)
(505.197 -0.000463757 0)
(505.201 -0.000623221 0)
(505.205 -0.000530711 0)
(505.209 -0.000127627 0)
(505.212 8.22103e-05 0)
(500 -2.16352e-13 0)
(500 -3.79237e-13 0)
(500 -4.87944e-13 0)
(500 -4.15941e-13 0)
(500 -4.44649e-13 0)
(500 -4.90335e-13 0)
(500 -3.59171e-13 0)
(500 -3.19049e-13 0)
(500 -1.84455e-13 0)
(500 -7.75227e-14 0)
(500 -8.72126e-14 0)
(500 -1.36784e-13 0)
(500 -2.36454e-13 0)
(500 -5.06289e-13 0)
(500 -7.06938e-13 0)
(500 -6.46762e-13 0)
(500 -5.34786e-13 0)
(500 -6.52063e-13 0)
(500 -9.22817e-13 0)
(500 -9.37982e-13 0)
(500 -7.45543e-13 0)
(500 -8.74986e-13 0)
(500 -7.42357e-13 0)
(500 -4.24701e-13 0)
(500 -1.95572e-13 0)
(500 7.6571e-14 0)
(500 1.45177e-13 0)
(500 9.0611e-14 0)
(500 1.53758e-13 0)
(500 1.36718e-13 0)
(500 2.93929e-13 0)
(500 3.65761e-13 0)
(500 3.36763e-13 0)
(500 4.462e-13 0)
(500 4.04661e-13 0)
(500 5.22588e-13 0)
(500 4.8404e-13 0)
(500 5.36388e-13 0)
(500 5.52583e-13 0)
(500 3.44727e-13 0)
(500 4.25368e-13 0)
(500 4.79288e-13 0)
(500 3.54892e-13 0)
(500 2.96703e-13 0)
(500 3.56075e-13 0)
(500 3.91496e-13 0)
(500 5.08569e-13 0)
(500 5.05465e-13 0)
(500 2.2961e-13 0)
(500 -1.29152e-13 0)
(500 -3.41376e-13 0)
(500 -3.26653e-13 0)
(500 -2.71034e-13 0)
(500 1.3311e-13 0)
(500 -2.83857e-12 0)
(500 7.49834e-12 0)
(500 -3.33583e-12 0)
(500 -9.73297e-11 0)
(500 5.56274e-10 0)
(500 -1.55161e-09 0)
(500 1.43867e-09 0)
(500 6.75349e-09 0)
(500 -2.82722e-08 0)
(500 1.5974e-08 0)
(500 2.44527e-07 0)
(500 -9.95898e-07 0)
(499.999 1.30896e-06 0)
(499.997 3.96266e-06 0)
(499.994 -2.37898e-05 0)
(499.986 5.84925e-05 0)
(499.97 -6.20846e-05 0)
(499.937 -6.8362e-05 0)
(499.876 0.000355326 0)
(499.771 -0.000395292 0)
(499.615 -0.000476329 0)
(499.445 0.00156176 0)
(499.353 -0.000471818 0)
(499.344 -0.0004111 0)
(499.351 -0.000357331 0)
(499.386 -0.000202898 0)
(499.47 0.000282261 0)
(499.619 -5.09855e-05 0)
(499.834 -0.000294979 0)
(500.108 0.00194384 0)
(500.425 0.000527552 0)
(500.77 -0.00431811 0)
(501.126 -0.000714856 0)
(501.482 0.00592566 0)
(501.837 0.000474404 0)
(502.183 -0.00772039 0)
(502.515 -0.000968331 0)
(502.83 0.00957134 0)
(503.134 0.00354896 0)
(503.419 -0.00903342 0)
(503.682 -0.00676041 0)
(503.917 0.00717019 0)
(504.13 0.00760751 0)
(504.319 -0.00301751 0)
(504.477 -0.0075957 0)
(504.61 0.000728333 0)
(504.718 0.00616278 0)
(504.812 0.00213996 0)
(504.892 -0.00364338 0)
(504.961 -0.00444136 0)
(505.022 0.000755249 0)
(505.077 0.00415575 0)
(505.131 0.00205295 0)
(505.183 -0.00198853 0)
(505.232 -0.00309333 0)
(505.274 0.000337436 0)
(505.301 0.00165661 0)
(505.311 0.00100537 0)
(505.312 -0.000297722 0)
(505.312 -0.000846834 0)
(505.311 -0.000655406 0)
(505.309 3.62336e-05 0)
(505.304 0.000507972 0)
(505.295 0.000476887 0)
(505.282 -7.99958e-06 0)
(505.265 -0.000515495 0)
(505.245 -0.000303826 0)
(505.223 0.000539848 0)
(505.202 0.000481771 0)
(505.182 -0.000478259 0)
(505.166 -0.000545618 0)
(505.154 -0.000296145 0)
(505.145 -4.72214e-05 0)
(505.138 0.000153846 0)
(505.133 0.00031113 0)
(505.128 0.000406048 0)
(505.125 0.000267414 0)
(505.121 5.80699e-05 0)
(505.118 -8.70245e-06 0)
(505.115 -0.000174192 0)
(505.112 -0.00027508 0)
(505.111 -0.000155206 0)
(505.11 7.02626e-05 0)
(505.11 0.000215396 0)
(505.11 0.000357127 0)
(505.111 0.00017924 0)
(505.113 -4.63232e-05 0)
(505.114 -0.000168467 0)
(505.117 -0.000293355 0)
(505.121 -0.000221274 0)
(505.126 -6.93278e-05 0)
(505.134 3.04032e-05 0)
(505.143 0.000110298 0)
(505.153 0.000164502 0)
(505.163 0.000164015 0)
(505.173 0.000140212 0)
(505.181 9.59396e-05 0)
(505.189 -0.000230161 0)
(505.195 -0.000223864 0)
(505.2 -0.000189601 0)
(505.203 -0.000148068 0)
(505.203 2.98252e-05 0)
(505.204 0.000224049 0)
(505.203 0.00023658 0)
(505.202 9.39193e-05 0)
(505.2 -0.000122778 0)
(505.198 -0.000152208 0)
(505.194 -0.000118609 0)
(505.189 -2.33428e-05 0)
(505.183 7.95872e-05 0)
(505.177 0.000151927 0)
(505.17 4.97257e-05 0)
(505.164 -6.86646e-05 0)
(505.159 -7.95486e-05 0)
(505.155 -9.82108e-05 0)
(505.151 -0.000112888 0)
(505.148 -0.000102698 0)
(505.146 -7.99833e-05 0)
(505.145 -8.97938e-06 0)
(505.144 0.00012555 0)
(505.142 0.000188402 0)
(505.14 0.000192384 0)
(505.137 0.000182465 0)
(505.132 0.000121653 0)
(505.127 1.01133e-06 0)
(505.122 -5.488e-05 0)
(505.117 -0.000175725 0)
(505.114 -0.00024694 0)
(505.115 -8.80745e-05 0)
(505.116 0.000101238 0)
(505.117 0.000149058 0)
(505.119 0.000202186 0)
(505.122 0.000262361 0)
(505.128 0.000230708 0)
(505.135 7.89043e-05 0)
(505.144 -0.000134438 0)
(505.154 -0.000320194 0)
(505.163 -0.000332245 0)
(505.171 -0.00027911 0)
(505.177 -0.000161321 0)
(505.182 -3.42279e-05 0)
(505.186 5.05259e-05 0)
(505.189 0.000215158 0)
(505.191 0.000294464 0)
(505.195 0.000101707 0)
(505.198 -4.68486e-05 0)
(505.2 -0.000181668 0)
(505.2 -0.000195153 0)
(505.201 -0.000138186 0)
(505.201 -1.95229e-05 0)
(505.199 3.98003e-05 0)
(505.197 0.000134246 0)
(505.193 0.000191557 0)
(505.189 0.00011347 0)
(505.184 7.20869e-05 0)
(505.178 2.96402e-05 0)
(505.172 -0.000101304 0)
(505.166 -0.000375129 0)
(505.162 -0.000453227 0)
(505.157 -0.000366525 0)
(505.154 -0.000256263 0)
(505.151 -8.2806e-05 0)
(505.148 0.000146672 0)
(505.146 0.00028295 0)
(505.144 0.000314432 0)
(505.143 0.000367821 0)
(505.143 0.000267232 0)
(505.142 2.94315e-05 0)
(505.141 5.22665e-05 0)
(505.138 8.58001e-05 0)
(505.136 0.000112373 0)
(505.132 0.000134606 0)
(505.127 9.66906e-05 0)
(505.121 0.000102015 0)
(505.116 -3.03822e-05 0)
(505.112 -0.000225618 0)
(505.111 -0.0003095 0)
(505.111 -0.000187155 0)
(505.112 -6.61085e-05 0)
(505.114 5.73181e-05 0)
(505.117 0.000214163 0)
(505.124 0.000201631 0)
(505.133 0.000117223 0)
(505.144 1.42599e-05 0)
(505.157 -0.000150806 0)
(505.168 -0.000357545 0)
(505.176 -0.000454293 0)
(505.181 -0.000193359 0)
(505.184 0.000211808 0)
(505.186 0.000397902 0)
(505.188 0.00044933 0)
(505.191 0.000298466 0)
(505.194 5.09383e-05 0)
(505.198 -0.000172874 0)
(505.202 -0.000320987 0)
(505.204 -0.000267916 0)
(505.204 -6.53275e-05 0)
(505.204 -8.71655e-06 0)
(505.203 0.000107455 0)
(505.202 0.000144929 0)
(505.2 0.000110868 0)
(505.198 1.40831e-05 0)
(505.194 -0.000113382 0)
(505.189 -0.000264562 0)
(505.182 -0.000373639 0)
(505.175 -0.000344957 0)
(505.167 -0.000185101 0)
(505.16 0.000155355 0)
(505.155 0.000448765 0)
(505.151 0.00052227 0)
(505.149 0.000418445 0)
(505.148 0.000258487 0)
(505.147 1.11662e-05 0)
(505.146 -0.000229966 0)
(505.145 -0.000357885 0)
(505.143 -0.000371857 0)
(505.141 -0.000219826 0)
(505.139 1.31147e-05 0)
(505.137 0.000241755 0)
(505.134 0.000254069 0)
(505.13 0.000135153 0)
(505.125 -1.37395e-05 0)
(505.119 -2.94307e-05 0)
(505.111 -0.00017322 0)
(505.105 -0.000146805 0)
(505.101 0.000257957 0)
(505.101 0.000271972 0)
(505.101 0.000249097 0)
(505.103 0.000220232 0)
(505.106 -6.30657e-06 0)
(505.112 -0.000413013 0)
(505.12 -0.000649444 0)
(505.131 -0.000571692 0)
(505.145 -0.000175755 0)
(505.158 0.000123495 0)
(505.17 0.000307274 0)
(505.179 0.00058582 0)
(505.185 0.000803967 0)
(505.189 0.000747625 0)
(505.191 0.000292018 0)
(505.193 -0.000340708 0)
(505.197 -0.000500886 0)
(505.2 -0.000499896 0)
(505.205 -0.000271279 0)
(505.209 1.14869e-05 0)
(505.213 2.87327e-05 0)
(500 3.24651e-14 0)
(500 -2.35351e-13 0)
(500 -2.54584e-13 0)
(500 -3.57993e-13 0)
(500 -3.40992e-13 0)
(500 -4.08982e-13 0)
(500 -4.16962e-13 0)
(500 -4.23131e-13 0)
(500 -2.89811e-13 0)
(500 -3.20089e-13 0)
(500 -3.51689e-13 0)
(500 -3.07432e-13 0)
(500 -4.2983e-13 0)
(500 -5.29408e-13 0)
(500 -6.43357e-13 0)
(500 -8.52381e-13 0)
(500 -8.30169e-13 0)
(500 -9.23885e-13 0)
(500 -9.89368e-13 0)
(500 -9.68793e-13 0)
(500 -6.7221e-13 0)
(500 -7.32663e-13 0)
(500 -5.71538e-13 0)
(500 -5.10198e-13 0)
(500 -3.3237e-13 0)
(500 2.4805e-13 0)
(500 2.01844e-13 0)
(500 1.46426e-13 0)
(500 2.34376e-13 0)
(500 2.3699e-13 0)
(500 1.84e-13 0)
(500 2.3334e-13 0)
(500 3.61462e-13 0)
(500 3.37736e-13 0)
(500 4.48617e-13 0)
(500 5.48554e-13 0)
(500 6.04636e-13 0)
(500 5.91922e-13 0)
(500 6.20023e-13 0)
(500 5.19618e-13 0)
(500 5.36745e-13 0)
(500 5.23594e-13 0)
(500 5.91665e-13 0)
(500 5.70476e-13 0)
(500 2.61693e-13 0)
(500 3.05939e-13 0)
(500 5.19464e-13 0)
(500 3.81012e-13 0)
(500 -1.01681e-13 0)
(500 -1.84652e-13 0)
(500 -3.42987e-13 0)
(500 -4.84375e-13 0)
(500 -3.77201e-13 0)