/*--------------------------------*- C++ -*----------------------------------*\
| =========                 |                                                 |
| \\      /  F ield         | OpenFOAM: The Open Source CFD Toolbox           |
|  \\    /   O peration     | Version:  2306                                  |
|   \\  /    A nd           | Website:  www.openfoam.com                      |
|    \\/     M anipulation  |                                                 |
\*---------------------------------------------------------------------------*/
FoamFile
{
    version     2.0;
    format      ascii;
    arch        "LSB;label=32;scalar=64";
    class       volScalarField;
    location    "0.11";
    object      rho;
}
// * * * * * * * * * * * * * * * * * * * * * * * * * * * * * * * * * * * * * //

dimensions      [1 -3 0 0 0 0 0];

internalField   nonuniform List<scalar> 
6000
(
31.7033
0.235949
0.145533
0.151678
0.156667
0.176894
0.202591
0.233304
0.258858
0.267785
0.267429
0.265739
0.26261
0.25867
0.247838
0.209186
0.159277
0.151696
0.153215
0.158356
0.164907
0.170987
0.176497
0.181773
0.187075
0.192574
0.198465
0.204994
0.21243
0.221215
0.231358
0.238625
0.238951
0.235245
0.212901
0.167544
0.154385
0.1549
0.158217
0.162987
0.166823
0.169662
0.172181
0.174795
0.177614
0.180577
0.183583
0.186542
0.189398
0.192381
0.196286
0.202819
0.212719
0.21775
0.216845
0.207053
0.177375
0.160635
0.159866
0.161037
0.164097
0.16688
0.168478
0.169542
0.170653
0.172041
0.173667
0.175334
0.176825
0.178039
0.179174
0.180797
0.184115
0.190237
0.19462
0.194692
0.191147
0.175875
0.158938
0.156286
0.156426
0.157962
0.160418
0.162211
0.163185
0.163924
0.164816
0.16602
0.167462
0.168849
0.169897
0.170626
0.171341
0.172626
0.175547
0.179579
0.180827
0.18024
0.175888
0.163114
0.152742
0.151382
0.15129
0.152242
0.154077
0.155593
0.15633
0.156715
0.157124
0.157766
0.158697
0.15972
0.160488
0.160938
0.161316
0.162076
0.164014
0.166788
0.167756
0.167279
0.164534
0.155917
0.146642
0.144629
0.144387
0.144906
0.146361
0.147853
0.148491
0.148612
0.148649
0.148824
0.149291
0.149965
0.150469
0.15063
0.150631
0.150722
0.151264
0.152668
0.15411
0.153993
0.152912
0.148367
0.140015
0.136677
0.136857
0.137708
0.139665
0.142223
0.144523
0.146232
0.147622
0.14909
0.150862
0.15307
0.155706
0.158548
0.161283
0.163838
0.166507
0.169996
0.174707
0.178087
0.179529
0.177373
0.170341
0.166005
0.166739
0.16902
0.173393
0.178609
0.182421
0.184473
0.186178
0.188178
0.190908
0.194558
0.19889
0.203591
0.208818
0.215307
0.223091
0.228612
0.232021
0.229361
0.223603
0.224146
0.230293
0.240492
0.25303
0.263588
0.271176
0.278162
0.285793
0.294954
0.305908
0.31894
0.33458
0.350227
0.357774
0.360426
0.355578
0.352388
0.361892
0.382014
0.417338
0.469778
0.544725
0.654981
0.820633
1.05738
1.24434
1.3398
1.37694
1.42058
1.49498
1.56569
1.58154
1.5751
1.54832
1.54345
1.55771
1.59746
1.64034
1.65112
1.6474
1.62961
1.62416
1.63062
1.64883
1.66613
1.66937
1.66667
1.65724
1.65363
1.6554
1.66052
1.66446
1.66496
1.66355
1.66147
1.66183
1.66397
1.66822
1.67076
1.67113
1.67029
1.66824
1.66734
1.66766
1.66826
1.66867
1.6688
1.66857
1.66847
1.66877
1.66946
1.67049
1.67108
1.67124
1.67115
1.671
1.67116
1.67155
1.67228
1.67301
1.67337
1.67357
1.67351
1.6732
1.67277
1.67242
1.67224
1.67219
1.67219
1.67221
1.67221
1.67215
1.67196
1.67161
1.67128
1.67122
1.67137
1.67165
1.6722
1.67296
1.67363
1.67391
1.67399
1.67396
1.67372
1.67318
1.67246
1.67196
1.67189
1.67204
1.67235
1.67289
1.67416
31.5981
0.342474
0.145483
0.151556
0.156361
0.176405
0.202068
0.232709
0.258411
0.26762
0.267391
0.265768
0.26266
0.258784
0.248254
0.209968
0.159648
0.15187
0.153362
0.158489
0.165035
0.171122
0.17665
0.181952
0.187282
0.1928
0.198687
0.205193
0.212589
0.221314
0.23143
0.238849
0.239351
0.235852
0.213934
0.168548
0.154897
0.155334
0.158567
0.163285
0.167075
0.169858
0.172317
0.174874
0.177644
0.180572
0.183555
0.186489
0.189341
0.192298
0.196097
0.202441
0.211999
0.216625
0.215715
0.205977
0.176629
0.160185
0.159477
0.160666
0.163762
0.166602
0.168258
0.169367
0.170518
0.171967
0.17372
0.175573
0.177222
0.178556
0.179771
0.181435
0.184757
0.190816
0.195064
0.195044
0.1913
0.175676
0.158855
0.156301
0.156421
0.157922
0.16034
0.162116
0.163084
0.163817
0.164703
0.165913
0.167375
0.168802
0.169893
0.170654
0.171409
0.172749
0.175698
0.179674
0.180845
0.180241
0.17584
0.162925
0.152506
0.151138
0.15104
0.151982
0.153805
0.155324
0.15609
0.156522
0.15699
0.157699
0.158698
0.159784
0.16061
0.161109
0.161531
0.162327
0.164288
0.167082
0.168064
0.167596
0.164847
0.156178
0.146869
0.144857
0.144606
0.145125
0.146577
0.148045
0.148644
0.148731
0.148737
0.148863
0.149246
0.149844
0.150352
0.150551
0.15057
0.150673
0.151238
0.152659
0.154083
0.153969
0.152906
0.148381
0.14007
0.136769
0.136964
0.137833
0.139808
0.142379
0.144694
0.146429
0.147848
0.149336
0.151121
0.153336
0.155969
0.158803
0.161532
0.164081
0.166743
0.17022
0.174936
0.178305
0.179738
0.177544
0.170404
0.166005
0.166702
0.168915
0.173161
0.17827
0.182003
0.183967
0.185697
0.187767
0.190558
0.194234
0.198561
0.203244
0.208492
0.215096
0.223081
0.228744
0.232178
0.229522
0.223657
0.224094
0.23019
0.240356
0.252906
0.263503
0.271124
0.278225
0.286028
0.295439
0.306712
0.32013
0.336227
0.352274
0.359885
0.36236
0.357247
0.354095
0.363643
0.38372
0.41883
0.470899
0.54568
0.656076
0.821769
1.0561
1.23795
1.33112
1.3695
1.41402
1.48936
1.56286
1.58038
1.57493
1.54728
1.53957
1.55324
1.59169
1.63752
1.65145
1.64977
1.63293
1.62556
1.63104
1.64746
1.66509
1.669
1.66691
1.65813
1.65404
1.65557
1.66026
1.66438
1.66499
1.66386
1.66188
1.6622
1.66415
1.66812
1.67056
1.67092
1.67015
1.66819
1.66728
1.66757
1.66813
1.66855
1.6687
1.66852
1.66847
1.66878
1.6695
1.67055
1.67118
1.67135
1.67128
1.67115
1.67131
1.67169
1.67237
1.67301
1.67329
1.67342
1.67328
1.67295
1.67257
1.6723
1.67218
1.67217
1.67223
1.67229
1.67229
1.67221
1.672
1.67162
1.67126
1.67119
1.67133
1.67159
1.67212
1.67287
1.67356
1.67388
1.67396
1.67395
1.67372
1.67321
1.6725
1.67199
1.67189
1.67204
1.67231
1.6728
1.67403
31.6136
0.325506
0.147047
0.152006
0.155794
0.175561
0.201191
0.231712
0.257734
0.267459
0.267355
0.265804
0.262818
0.259123
0.248904
0.211038
0.160194
0.152096
0.153524
0.158627
0.165177
0.171289
0.176864
0.182222
0.187607
0.193178
0.199105
0.205584
0.212886
0.221473
0.23153
0.239032
0.239547
0.236243
0.215424
0.170179
0.155558
0.155863
0.158948
0.163612
0.167389
0.170135
0.172528
0.175005
0.177703
0.180586
0.183563
0.186515
0.189388
0.192334
0.196027
0.202176
0.211311
0.215466
0.214433
0.20451
0.175417
0.159532
0.158913
0.160116
0.163232
0.166138
0.167891
0.169091
0.170336
0.1719
0.173777
0.175761
0.17758
0.179088
0.18046
0.182265
0.185749
0.19185
0.195773
0.195563
0.191444
0.175265
0.158695
0.156315
0.156405
0.157866
0.160222
0.161955
0.162902
0.163623
0.164504
0.165716
0.167197
0.168664
0.169823
0.170667
0.17149
0.172885
0.175884
0.17986
0.18101
0.180354
0.175829
0.162718
0.152295
0.15094
0.150855
0.151798
0.15361
0.155117
0.155879
0.156315
0.1568
0.157549
0.158612
0.159768
0.16068
0.161263
0.161767
0.162658
0.164715
0.167587
0.168591
0.16814
0.165375
0.156606
0.147253
0.145251
0.144991
0.145514
0.146971
0.148407
0.148921
0.148939
0.148882
0.148925
0.149197
0.149704
0.150188
0.150416
0.150476
0.150616
0.151228
0.152689
0.154086
0.153964
0.152895
0.148357
0.140092
0.136833
0.13704
0.137926
0.139928
0.142514
0.144836
0.146592
0.148041
0.149562
0.151381
0.153626
0.15628
0.159124
0.161853
0.164404
0.167077
0.170584
0.175326
0.178661
0.180055
0.177779
0.170479
0.166024
0.166715
0.168901
0.173058
0.178012
0.181578
0.183442
0.18514
0.187214
0.190029
0.19371
0.198017
0.202685
0.207952
0.214662
0.222854
0.228677
0.232185
0.229523
0.223478
0.223699
0.22969
0.239768
0.252367
0.263171
0.270947
0.278431
0.286882
0.297156
0.309559
0.324323
0.341897
0.359446
0.367733
0.369937
0.363903
0.360753
0.370257
0.390286
0.425032
0.475921
0.549292
0.658597
0.822724
1.04954
1.21689
1.30209
1.34012
1.3853
1.46244
1.54335
1.56988
1.57246
1.55063
1.53827
1.55022
1.58481
1.63379
1.65232
1.65287
1.63805
1.62821
1.63222
1.64592
1.66334
1.66818
1.66705
1.65947
1.65477
1.65583
1.65978
1.66408
1.66491
1.66425
1.6626
1.66286
1.66453
1.66799
1.67028
1.67065
1.66999
1.66817
1.66722
1.66747
1.66798
1.66838
1.66855
1.66841
1.66842
1.66874
1.66947
1.67056
1.67127
1.67148
1.67148
1.6714
1.67158
1.67196
1.67257
1.67303
1.67325
1.67326
1.67302
1.6726
1.67223
1.67205
1.67204
1.67213
1.67227
1.67237
1.6724
1.67232
1.67207
1.67165
1.67125
1.67116
1.67128
1.67152
1.67201
1.67273
1.67343
1.67379
1.67389
1.67389
1.6737
1.67323
1.67256
1.67204
1.6719
1.67203
1.67227
1.67271
1.67384
31.6245
0.329918
0.147686
0.152063
0.155467
0.174952
0.200291
0.230375
0.256731
0.267239
0.26731
0.265858
0.263052
0.259589
0.24979
0.212606
0.160995
0.152367
0.153722
0.15878
0.16534
0.171495
0.177132
0.18256
0.188015
0.193663
0.199659
0.206139
0.213331
0.221688
0.231576
0.239158
0.239771
0.236789
0.217353
0.172438
0.156412
0.156507
0.159396
0.164014
0.167813
0.170552
0.172899
0.175295
0.177895
0.180697
0.183634
0.186587
0.189451
0.192324
0.195893
0.201894
0.210582
0.21413
0.212933
0.202671
0.173828
0.158747
0.158241
0.159471
0.162625
0.165613
0.167478
0.168787
0.170133
0.171805
0.173815
0.175972
0.177997
0.179721
0.181292
0.183268
0.186903
0.192917
0.196367
0.195947
0.191451
0.174662
0.158459
0.156289
0.15636
0.157791
0.160091
0.161793
0.162746
0.163485
0.164386
0.165617
0.167121
0.168612
0.169805
0.170701
0.171582
0.173027
0.176079
0.180066
0.181197
0.180488
0.17586
0.162567
0.152142
0.150804
0.150739
0.151693
0.153506
0.155005
0.155754
0.156185
0.156673
0.157442
0.158557
0.159801
0.16082
0.161515
0.162127
0.163116
0.165274
0.16824
0.169286
0.168852
0.166052
0.15712
0.147706
0.14572
0.145444
0.145966
0.147396
0.148722
0.149129
0.149084
0.148969
0.148943
0.149127
0.149567
0.150042
0.150305
0.150407
0.150599
0.151278
0.152783
0.154135
0.153999
0.152922
0.148363
0.140149
0.136957
0.137169
0.138057
0.140079
0.14268
0.144994
0.146754
0.148228
0.149782
0.151639
0.153921
0.156616
0.159509
0.162281
0.164859
0.167545
0.171056
0.175774
0.178981
0.180277
0.17786
0.170354
0.165843
0.166513
0.168682
0.172819
0.177713
0.181165
0.182939
0.184568
0.186557
0.189313
0.192985
0.197335
0.202087
0.207431
0.214181
0.222415
0.228318
0.231821
0.229167
0.222902
0.22277
0.228564
0.23848
0.25112
0.262236
0.270393
0.278547
0.288121
0.3
0.314641
0.33224
0.353027
0.373916
0.383985
0.386104
0.378516
0.375431
0.384831
0.405136
0.439358
0.488307
0.558654
0.663779
0.821068
1.02742
1.16926
1.2399
1.27694
1.32381
1.40324
1.49572
1.54104
1.55877
1.55001
1.53798
1.54999
1.58156
1.6314
1.65338
1.65561
1.64244
1.63056
1.63349
1.64486
1.6619
1.6678
1.66736
1.66077
1.65529
1.65598
1.65931
1.66388
1.66513
1.66487
1.66349
1.6636
1.66485
1.66777
1.66998
1.67037
1.66988
1.66821
1.66714
1.66731
1.66776
1.66818
1.66837
1.66833
1.6684
1.66874
1.66948
1.67062
1.67146
1.67172
1.67179
1.67176
1.67194
1.6723
1.67277
1.67303
1.67318
1.67307
1.67269
1.67218
1.67183
1.67174
1.67186
1.67208
1.67228
1.67243
1.6725
1.67243
1.67217
1.67169
1.67123
1.6711
1.67121
1.67142
1.67187
1.67254
1.67325
1.67368
1.6738
1.67383
1.67368
1.67327
1.67265
1.6721
1.67192
1.67202
1.67221
1.67257
1.67358
31.3964
0.562756
0.148108
0.152256
0.155549
0.17467
0.199425
0.228879
0.255498
0.266985
0.267305
0.26594
0.263269
0.259961
0.250596
0.214391
0.161931
0.152578
0.153843
0.158838
0.165401
0.171589
0.177286
0.182801
0.188369
0.194135
0.200215
0.206687
0.213724
0.221814
0.231458
0.239085
0.239878
0.237241
0.219387
0.175136
0.157407
0.157226
0.159886
0.164448
0.168294
0.17104
0.173342
0.175657
0.178169
0.180903
0.183807
0.18675
0.189585
0.192396
0.19588
0.201789
0.210028
0.212959
0.211588
0.200965
0.172401
0.158128
0.157738
0.159008
0.162194
0.165242
0.167187
0.168567
0.169978
0.171723
0.173847
0.17617
0.178387
0.180297
0.182002
0.184069
0.187784
0.193683
0.196765
0.196201
0.191296
0.173929
0.158169
0.156199
0.156268
0.1577
0.15998
0.16167
0.162614
0.16334
0.164225
0.165447
0.166962
0.168492
0.169734
0.17067
0.171604
0.173115
0.176236
0.180228
0.181337
0.18058
0.175887
0.162528
0.152129
0.150807
0.150761
0.15172
0.15352
0.155012
0.155777
0.156221
0.156712
0.157475
0.158583
0.15984
0.160917
0.161716
0.162447
0.163553
0.165829
0.168889
0.169958
0.169522
0.166634
0.157504
0.148135
0.14621
0.145928
0.146453
0.147851
0.149066
0.149385
0.149268
0.149058
0.148947
0.149074
0.149484
0.149977
0.150274
0.150403
0.150623
0.151355
0.1529
0.15421
0.15405
0.15295
0.148323
0.140114
0.13699
0.137205
0.138101
0.140154
0.142776
0.145066
0.146813
0.148295
0.149872
0.151759
0.154066
0.156784
0.159713
0.162543
0.165175
0.167913
0.171461
0.176185
0.17931
0.180533
0.178016
0.170315
0.165729
0.166383
0.168548
0.172693
0.177541
0.180896
0.182636
0.184238
0.186148
0.18882
0.192445
0.196761
0.20149
0.206821
0.213549
0.221787
0.227699
0.231125
0.228477
0.221989
0.221398
0.226902
0.236556
0.249195
0.2607
0.269465
0.278435
0.289197
0.303011
0.320548
0.342183
0.368105
0.39479
0.408429
0.411667
0.402509
0.399989
0.409498
0.430631
0.463809
0.509023
0.573472
0.670022
0.813455
0.984373
1.09377
1.1458
1.18351
1.23534
1.32017
1.42745
1.50321
1.53845
1.547
1.54041
1.55399
1.58358
1.63175
1.65456
1.65729
1.64517
1.6323
1.63442
1.64445
1.66119
1.66778
1.66764
1.66156
1.65552
1.65588
1.65886
1.66384
1.66564
1.66566
1.66443
1.66419
1.66506
1.66747
1.6697
1.67016
1.66984
1.66836
1.66712
1.66712
1.66748
1.66794
1.66819
1.66829
1.66844
1.66879
1.66952
1.67066
1.67161
1.67197
1.67214
1.67217
1.67235
1.67265
1.67293
1.67309
1.67309
1.67284
1.67231
1.67174
1.67144
1.67147
1.67169
1.67197
1.67225
1.67244
1.67256
1.67252
1.67227
1.67175
1.67122
1.67103
1.67112
1.6713
1.6717
1.67233
1.67306
1.67356
1.6737
1.67375
1.67364
1.67331
1.67276
1.6722
1.67196
1.67201
1.67215
1.67243
1.67329
31.6314
0.332332
0.148281
0.152485
0.155502
0.174134
0.198366
0.227442
0.254387
0.266709
0.267246
0.265936
0.263354
0.260157
0.251237
0.21619
0.162893
0.152653
0.153854
0.158825
0.16544
0.171692
0.17745
0.183036
0.188675
0.194502
0.200589
0.206998
0.213852
0.221659
0.231094
0.238861
0.239927
0.237639
0.221324
0.177841
0.158242
0.15777
0.160218
0.164739
0.168645
0.171431
0.173718
0.17598
0.178431
0.181126
0.184022
0.186972
0.189808
0.192609
0.196048
0.201883
0.209704
0.212149
0.210613
0.199668
0.171386
0.157803
0.157501
0.158803
0.162011
0.165116
0.167127
0.168551
0.169985
0.171758
0.173961
0.176403
0.178698
0.18063
0.182352
0.184448
0.188236
0.194066
0.196852
0.196146
0.190862
0.173059
0.157826
0.15606
0.156168
0.157631
0.159926
0.161622
0.162567
0.163286
0.164158
0.165371
0.166894
0.168453
0.169733
0.17071
0.171679
0.173206
0.176325
0.18034
0.181449
0.180647
0.175921
0.162584
0.152313
0.151033
0.151017
0.152001
0.153792
0.15525
0.155983
0.156408
0.156889
0.157648
0.158749
0.160004
0.161091
0.161912
0.162686
0.163875
0.166262
0.169374
0.170411
0.169948
0.166948
0.157624
0.148331
0.146517
0.14626
0.146813
0.148199
0.149306
0.149544
0.14938
0.149123
0.148976
0.149084
0.149501
0.150036
0.150354
0.150495
0.150739
0.151517
0.153102
0.154377
0.15419
0.153045
0.148291
0.140048
0.137023
0.137248
0.138161
0.140238
0.142849
0.1451
0.14682
0.148286
0.149839
0.151694
0.15397
0.156664
0.159587
0.162446
0.165141
0.167947
0.171556
0.176321
0.179443
0.180649
0.178091
0.170245
0.165564
0.166205
0.168362
0.17247
0.177281
0.18069
0.182548
0.184207
0.186124
0.188748
0.192294
0.196509
0.201074
0.20624
0.212868
0.221077
0.227048
0.230389
0.227795
0.221106
0.219979
0.225113
0.234395
0.246947
0.258844
0.268229
0.277953
0.289697
0.305164
0.325388
0.35107
0.382839
0.417038
0.43646
0.443221
0.433628
0.433237
0.444372
0.466911
0.497593
0.536484
0.591786
0.675114
0.797988
0.925248
1.00399
1.03955
1.07904
1.13837
1.23321
1.3572
1.46491
1.52073
1.54634
1.54521
1.55965
1.5871
1.63319
1.65593
1.65844
1.64681
1.63364
1.63537
1.64477
1.66114
1.66789
1.66776
1.66181
1.65541
1.65558
1.65859
1.66409
1.6664
1.66654
1.66522
1.66452
1.66514
1.66714
1.66946
1.67005
1.66987
1.66856
1.66716
1.66696
1.66723
1.66771
1.66807
1.66829
1.66854
1.66891
1.6696
1.67071
1.67174
1.67222
1.67246
1.67259
1.67275
1.67294
1.67307
1.67314
1.67301
1.67259
1.67193
1.67135
1.67115
1.67127
1.67151
1.67186
1.67222
1.67244
1.67257
1.67257
1.67233
1.67181
1.67121
1.67095
1.67101
1.67116
1.67151
1.6721
1.67285
1.67343
1.67364
1.67371
1.67364
1.67338
1.6729
1.67233
1.67202
1.67202
1.67212
1.67232
1.67303
31.494
0.469121
0.147731
0.15245
0.155301
0.17352
0.197309
0.226255
0.253516
0.26636
0.267115
0.265889
0.263388
0.260263
0.251749
0.217816
0.163782
0.15269
0.153822
0.158748
0.165397
0.171688
0.177472
0.183089
0.188764
0.194604
0.200655
0.206954
0.213638
0.221224
0.230552
0.238527
0.23983
0.237845
0.222877
0.180264
0.158947
0.158226
0.160472
0.164936
0.168904
0.171727
0.174007
0.176239
0.178665
0.18136
0.184277
0.187258
0.190105
0.192877
0.19625
0.20197
0.209466
0.211611
0.209993
0.198893
0.170905
0.157787
0.157533
0.158863
0.162094
0.165238
0.16729
0.168744
0.170199
0.171984
0.174129
0.176459
0.178713
0.180669
0.182412
0.18452
0.188329
0.194079
0.196608
0.19578
0.190186
0.172107
0.157439
0.155856
0.156024
0.157566
0.159917
0.161649
0.162616
0.163344
0.164215
0.165426
0.16694
0.168485
0.169763
0.17075
0.171726
0.173255
0.176385
0.180416
0.181519
0.180713
0.175955
0.162644
0.152619
0.151456
0.151514
0.152595
0.154434
0.155846
0.156509
0.156876
0.157303
0.158015
0.159079
0.1603
0.16134
0.162122
0.162885
0.1641
0.166552
0.169663
0.170605
0.1701
0.166952
0.157394
0.14826
0.146569
0.146337
0.14692
0.148317
0.149408
0.149636
0.149483
0.149254
0.149139
0.149281
0.149733
0.150261
0.150579
0.150734
0.150996
0.151808
0.153428
0.154672
0.154441
0.153206
0.148248
0.139931
0.137029
0.137267
0.138186
0.140275
0.142847
0.144999
0.146621
0.14802
0.149518
0.151323
0.153553
0.156216
0.159132
0.162002
0.164723
0.167566
0.171215
0.176017
0.179224
0.180481
0.177991
0.170145
0.16537
0.166009
0.168195
0.172372
0.177323
0.180848
0.182765
0.184466
0.186387
0.188996
0.192484
0.196564
0.200924
0.205825
0.212224
0.2204
0.226543
0.229849
0.227421
0.220593
0.218898
0.223665
0.232502
0.244849
0.256921
0.26679
0.277058
0.289542
0.305884
0.327743
0.356277
0.393036
0.43395
0.460566
0.473449
0.466589
0.47137
0.486311
0.510197
0.536687
0.567757
0.612734
0.682263
0.780922
0.867666
0.921563
0.946605
0.988392
1.05565
1.16179
1.30178
1.43706
1.51135
1.54776
1.54929
1.56316
1.58945
1.63473
1.65748
1.65982
1.64822
1.63487
1.63637
1.64534
1.66131
1.66797
1.66773
1.66168
1.65518
1.65538
1.65861
1.66456
1.66718
1.66731
1.6658
1.66463
1.66506
1.66681
1.66926
1.67005
1.66996
1.66878
1.66723
1.66687
1.66712
1.66761
1.66807
1.66836
1.66865
1.66903
1.66972
1.67079
1.67187
1.67246
1.67273
1.67291
1.67307
1.67319
1.67326
1.6732
1.67296
1.67239
1.67161
1.67107
1.67099
1.67113
1.67139
1.67177
1.67217
1.67243
1.67256
1.67257
1.67236
1.67186
1.67121
1.67086
1.67088
1.67102
1.67132
1.67188
1.67263
1.6733
1.67361
1.67369
1.67367
1.67348
1.67306
1.67252
1.67213
1.67207
1.67212
1.67227
1.67283
31.5478
0.41932
0.146238
0.151795
0.154955
0.173279
0.196973
0.225705
0.252847
0.265871
0.266778
0.265672
0.263333
0.260357
0.252181
0.219103
0.164458
0.152621
0.153717
0.158608
0.165271
0.171566
0.177328
0.182903
0.18853
0.194313
0.200295
0.206507
0.213117
0.220682
0.230024
0.238155
0.239661
0.2379
0.224006
0.182296
0.159496
0.158559
0.160663
0.165093
0.169126
0.171995
0.174289
0.176522
0.178954
0.181658
0.184577
0.187529
0.190341
0.193076
0.196412
0.202058
0.209408
0.211468
0.209833
0.198699
0.170942
0.158098
0.15783
0.159142
0.162348
0.165482
0.167547
0.169016
0.170459
0.172184
0.174227
0.176442
0.178571
0.180412
0.182086
0.184184
0.18804
0.19374
0.196082
0.19519
0.189383
0.171175
0.157021
0.1556
0.155844
0.157517
0.159976
0.161771
0.162767
0.163502
0.164367
0.165558
0.167039
0.168548
0.169797
0.170773
0.171744
0.173281
0.176454
0.180521
0.181607
0.18078
0.175972
0.162687
0.152934
0.151872
0.152009
0.153249
0.155242
0.156695
0.157326
0.157639
0.157992
0.15861
0.159581
0.160711
0.161659
0.16236
0.163065
0.164252
0.166729
0.169786
0.170615
0.170043
0.16667
0.156808
0.147941
0.146395
0.146178
0.146795
0.148255
0.149439
0.149724
0.149624
0.149472
0.149431
0.14963
0.15012
0.150654
0.150976
0.151145
0.151435
0.152298
0.15395
0.155153
0.154862
0.153484
0.148231
0.139776
0.136997
0.137217
0.138138
0.140209
0.142721
0.144743
0.146244
0.147544
0.148952
0.150677
0.152838
0.155442
0.158313
0.161162
0.163877
0.166718
0.170371
0.175166
0.178499
0.179859
0.177558
0.169913
0.165064
0.165726
0.168026
0.172393
0.177607
0.181271
0.183238
0.184998
0.18697
0.189545
0.19295
0.196869
0.201004
0.205633
0.211785
0.219836
0.226218
0.229567
0.227376
0.220505
0.218323
0.222796
0.231203
0.243307
0.255385
0.265414
0.275934
0.288847
0.305788
0.328326
0.35796
0.396769
0.442314
0.475551
0.495561
0.495923
0.50838
0.528805
0.554439
0.577409
0.60179
0.637418
0.693968
0.770877
0.826458
0.862775
0.882223
0.927381
1.00152
1.11603
1.26641
1.42045
1.50839
1.55045
1.55192
1.56462
1.59074
1.63634
1.65911
1.66128
1.64953
1.63575
1.63702
1.64575
1.66147
1.66798
1.66761
1.6615
1.65514
1.65545
1.65885
1.66501
1.66765
1.66773
1.66609
1.66458
1.6649
1.66655
1.66911
1.67006
1.67003
1.66896
1.66739
1.66698
1.66723
1.66772
1.66819
1.6685
1.66881
1.6692
1.66984
1.67085
1.67192
1.67256
1.67285
1.67308
1.67327
1.67341
1.67346
1.67334
1.67295
1.67226
1.67142
1.67095
1.67092
1.67107
1.67133
1.67172
1.67215
1.67241
1.67253
1.67254
1.67235
1.67186
1.67119
1.67077
1.67075
1.67087
1.67114
1.67166
1.67242
1.67318
1.6736
1.6737
1.67371
1.67359
1.67326
1.67275
1.6723
1.67215
1.67218
1.67228
1.67272
31.6854
0.294864
0.145384
0.151131
0.155269
0.173697
0.197156
0.225567
0.252555
0.265508
0.266446
0.26544
0.263265
0.260442
0.252457
0.220037
0.16497
0.15251
0.153584
0.15844
0.1651
0.171379
0.177079
0.18255
0.188049
0.193707
0.199602
0.205811
0.212504
0.220205
0.229624
0.237757
0.239378
0.237732
0.22466
0.183832
0.159826
0.158751
0.160746
0.165155
0.16925
0.172174
0.174498
0.176745
0.179177
0.181865
0.184752
0.187672
0.190435
0.193146
0.196483
0.202147
0.209534
0.211657
0.210063
0.19893
0.171271
0.15858
0.158264
0.159574
0.162771
0.165891
0.167926
0.169355
0.170755
0.172398
0.174327
0.176386
0.178312
0.179953
0.181489
0.183546
0.187454
0.193189
0.19546
0.194572
0.188673
0.170461
0.156668
0.155355
0.155668
0.157469
0.160045
0.161898
0.162912
0.163645
0.164494
0.165661
0.167118
0.168606
0.169836
0.170789
0.171751
0.17331
0.17656
0.180686
0.181745
0.180905
0.17598
0.162645
0.153254
0.152325
0.152515
0.15387
0.156005
0.157537
0.158188
0.158498
0.158832
0.1594
0.160264
0.161242
0.162038
0.162616
0.163232
0.16438
0.166863
0.169809
0.170497
0.169825
0.166138
0.155972
0.147474
0.146104
0.14592
0.146596
0.14815
0.149478
0.149868
0.149843
0.149765
0.149794
0.150062
0.1506
0.151169
0.151529
0.151739
0.152081
0.153023
0.154713
0.155851
0.155483
0.153928
0.148294
0.139643
0.136989
0.137148
0.138033
0.140074
0.142509
0.144368
0.145701
0.146862
0.148144
0.149748
0.151801
0.15431
0.157097
0.159881
0.162555
0.165374
0.169005
0.173773
0.177266
0.178768
0.17678
0.169525
0.164625
0.165311
0.167759
0.172381
0.177897
0.181782
0.183875
0.185733
0.187792
0.19033
0.193613
0.197408
0.201389
0.20586
0.211779
0.219593
0.226069
0.229421
0.22753
0.22074
0.218185
0.222476
0.230554
0.242421
0.254417
0.264438
0.274894
0.287887
0.305084
0.3279
0.357788
0.396975
0.443936
0.480564
0.506214
0.514785
0.535777
0.563932
0.594908
0.618102
0.638628
0.666982
0.7114
0.767402
0.803687
0.828917
0.848535
0.898251
0.976219
1.0939
1.248
1.41168
1.50787
1.55266
1.55318
1.5652
1.59177
1.63821
1.66088
1.66272
1.65023
1.63588
1.63699
1.6457
1.66152
1.66816
1.66788
1.66196
1.65559
1.65582
1.65916
1.66523
1.6678
1.66785
1.66605
1.66442
1.66474
1.6664
1.66903
1.67005
1.67006
1.6691
1.66769
1.66733
1.66756
1.66806
1.66849
1.66873
1.66898
1.6693
1.66986
1.6708
1.67187
1.67256
1.6729
1.67316
1.6734
1.67356
1.67365
1.67354
1.6731
1.6723
1.67141
1.67093
1.67092
1.67106
1.67132
1.67172
1.67215
1.67239
1.67249
1.67248
1.6723
1.67183
1.67115
1.67069
1.67063
1.67074
1.67098
1.67147
1.67221
1.67304
1.67357
1.67373
1.67376
1.6737
1.67345
1.67301
1.67253
1.67228
1.67228
1.67237
1.6727
31.5347
0.441737
0.145442
0.151116
0.155572
0.17415
0.197519
0.225823
0.252754
0.265535
0.266423
0.265456
0.263306
0.260464
0.252541
0.220653
0.165479
0.152478
0.153517
0.158306
0.164941
0.171203
0.176847
0.18221
0.187567
0.193091
0.1989
0.205121
0.21194
0.219817
0.229315
0.237337
0.238963
0.237357
0.224851
0.18474
0.159966
0.158841
0.160775
0.165177
0.169321
0.1723
0.174664
0.176938
0.179382
0.18206
0.184907
0.187756
0.19045
0.193113
0.196465
0.202203
0.209716
0.211912
0.210369
0.199254
0.171679
0.159072
0.158682
0.159976
0.163157
0.166255
0.168246
0.169606
0.170912
0.172453
0.174269
0.176179
0.177919
0.179383
0.180802
0.182835
0.186786
0.192597
0.194911
0.194073
0.1882
0.170086
0.156474
0.155205
0.155559
0.157433
0.16008
0.161974
0.163004
0.163745
0.164598
0.165761
0.167197
0.168639
0.169821
0.170751
0.171716
0.173327
0.176697
0.180868
0.181857
0.18101
0.17593
0.162528
0.153484
0.152636
0.152869
0.154326
0.156565
0.158147
0.15882
0.159149
0.159511
0.160108
0.160972
0.161884
0.162565
0.16302
0.163521
0.164579
0.167023
0.16982
0.170298
0.169491
0.165465
0.155056
0.147051
0.145884
0.145767
0.146536
0.148208
0.149637
0.150092
0.150114
0.150087
0.150174
0.150519
0.151124
0.15175
0.152173
0.152454
0.15288
0.153938
0.155687
0.156744
0.156285
0.154503
0.148405
0.139555
0.136982
0.13707
0.137901
0.13989
0.142207
0.143876
0.145036
0.146057
0.147198
0.148652
0.150554
0.152919
0.155569
0.158233
0.160825
0.163592
0.167181
0.171917
0.175645
0.177325
0.175758
0.16901
0.164091
0.164793
0.167379
0.172154
0.177943
0.182132
0.184453
0.186497
0.188699
0.191284
0.194513
0.198252
0.20221
0.206578
0.212286
0.219899
0.226331
0.22958
0.227931
0.221258
0.218392
0.222475
0.23038
0.242166
0.254153
0.264085
0.274192
0.286868
0.303847
0.326609
0.356447
0.39555
0.443052
0.481398
0.509803
0.52239
0.549344
0.586302
0.627494
0.657057
0.677779
0.702582
0.737648
0.771539
0.795854
0.815736
0.839362
0.890149
0.969134
1.0867
1.24098
1.40808
1.50746
1.55304
1.55321
1.5656
1.59326
1.64085
1.66274
1.6639
1.64995
1.63515
1.63629
1.64535
1.66185
1.66873
1.66849
1.66262
1.65636
1.65653
1.6597
1.66541
1.66765
1.6676
1.66568
1.66419
1.6646
1.66638
1.66904
1.67003
1.67004
1.66915
1.66798
1.6678
1.66809
1.66861
1.66891
1.66902
1.66907
1.66932
1.66978
1.67066
1.67172
1.67245
1.67282
1.67312
1.67343
1.67368
1.67381
1.67376
1.67337
1.6725
1.67147
1.67095
1.67096
1.6711
1.67136
1.67176
1.67216
1.67237
1.67243
1.67241
1.67222
1.67178
1.67113
1.67062
1.67052
1.67063
1.67085
1.6713
1.67201
1.67287
1.67351
1.67376
1.6738
1.67378
1.67362
1.67327
1.67281
1.67247
1.67242
1.6725
1.67273
31.6355
0.323481
0.146369
0.151439
0.155484
0.174057
0.197673
0.226209
0.253215
0.265849
0.266694
0.265752
0.263515
0.260478
0.252393
0.221004
0.166088
0.152615
0.153575
0.158246
0.164836
0.171083
0.176683
0.181958
0.187192
0.192587
0.198303
0.204511
0.211408
0.219413
0.228939
0.236799
0.238365
0.236749
0.224615
0.185087
0.159935
0.158802
0.16068
0.165084
0.169276
0.172302
0.174707
0.177029
0.179521
0.182224
0.185057
0.187843
0.190463
0.193061
0.196403
0.20219
0.209797
0.212051
0.210536
0.199427
0.171918
0.159366
0.158906
0.16019
0.163337
0.166397
0.168341
0.169649
0.170891
0.172349
0.174043
0.175814
0.177426
0.178799
0.180173
0.182217
0.186207
0.192115
0.194536
0.193769
0.187967
0.169961
0.156408
0.155136
0.155499
0.157403
0.160085
0.162002
0.163045
0.163789
0.164639
0.165795
0.167215
0.168628
0.169771
0.170674
0.171642
0.173319
0.176825
0.181015
0.181905
0.181028
0.175715
0.162177
0.153581
0.152826
0.153091
0.154602
0.15687
0.158465
0.159149
0.159495
0.159889
0.16054
0.161474
0.162426
0.163084
0.163474
0.163895
0.164886
0.167256
0.169844
0.170112
0.169167
0.164834
0.154286
0.146798
0.145792
0.145714
0.146553
0.148324
0.149839
0.150357
0.150418
0.150429
0.150572
0.150987
0.151656
0.152338
0.152823
0.153176
0.153693
0.154887
0.156725
0.15773
0.157224
0.15525
0.148697
0.13969
0.137159
0.137152
0.137895
0.139801
0.141972
0.143418
0.144371
0.145241
0.146245
0.147554
0.149295
0.151479
0.153939
0.156425
0.158875
0.161544
0.165051
0.169727
0.173752
0.175631
0.174514
0.168317
0.163357
0.16403
0.166746
0.17166
0.177652
0.182161
0.184762
0.187068
0.189496
0.192236
0.195557
0.199371
0.203399
0.207786
0.213465
0.221018
0.227422
0.230555
0.228969
0.222255
0.219119
0.222996
0.230675
0.242286
0.254235
0.264094
0.273959
0.285981
0.302229
0.324237
0.353409
0.39198
0.439393
0.478832
0.508862
0.523543
0.552755
0.594485
0.646076
0.689023
0.717283
0.74406
0.77436
0.791264
0.803516
0.816809
0.841661
0.892349
0.971631
1.08759
1.24008
1.40583
1.50487
1.55079
1.5526
1.56635
1.59568
1.64392
1.66417
1.66446
1.64882
1.6342
1.63562
1.6458
1.66281
1.66939
1.66901
1.66291
1.65704
1.65733
1.66056
1.66583
1.66752
1.66726
1.6651
1.66384
1.66438
1.66639
1.66911
1.67004
1.67004
1.66922
1.6683
1.66833
1.66872
1.6692
1.66938
1.66932
1.66913
1.66927
1.66963
1.6704
1.67142
1.67219
1.67264
1.67299
1.67338
1.67378
1.67395
1.67397
1.67366
1.67282
1.67168
1.67105
1.67103
1.67116
1.6714
1.67177
1.67215
1.67234
1.67237
1.67233
1.67216
1.67176
1.67114
1.6706
1.67044
1.67054
1.67074
1.67116
1.67182
1.67265
1.67338
1.67375
1.67382
1.67384
1.67375
1.67351
1.67311
1.67271
1.67259
1.67265
1.67279
31.4759
0.479154
0.14707
0.151585
0.155032
0.173691
0.197747
0.226833
0.254102
0.266563
0.267305
0.266222
0.263789
0.260472
0.252189
0.221303
0.166764
0.152836
0.153688
0.158205
0.164715
0.170938
0.176518
0.181739
0.186892
0.192183
0.197802
0.203962
0.210889
0.218946
0.228418
0.23608
0.23757
0.235936
0.223969
0.184876
0.159733
0.158655
0.16052
0.164949
0.169199
0.172286
0.174748
0.177124
0.179662
0.182394
0.185219
0.187965
0.190511
0.193051
0.196371
0.202183
0.20983
0.212098
0.210579
0.199431
0.171943
0.159427
0.15889
0.160145
0.163241
0.166251
0.168163
0.169454
0.170673
0.172091
0.173739
0.175464
0.177043
0.178409
0.179801
0.181854
0.185842
0.191816
0.194354
0.193667
0.187972
0.170051
0.15643
0.155131
0.15549
0.157391