/*--------------------------------*- C++ -*----------------------------------*\
| =========                 |                                                 |
| \\      /  F ield         | OpenFOAM: The Open Source CFD Toolbox           |
|  \\    /   O peration     | Version:  2306                                  |
|   \\  /    A nd           | Website:  www.openfoam.com                      |
|    \\/     M anipulation  |                                                 |
\*---------------------------------------------------------------------------*/
FoamFile
{
    version     2.0;
    format      ascii;
    arch        "LSB;label=32;scalar=64";
    class       volVectorField;
    location    "0.11";
    object      U;
}
// * * * * * * * * * * * * * * * * * * * * * * * * * * * * * * * * * * * * * //

dimensions      [0 1 -1 0 0 0 0];

internalField   nonuniform List<vector> 
6000
(
(-2387.29 -0.17602 0)
(-732.737 -2.23994 0)
(-308.743 -0.945759 0)
(-306.522 -1.01012 0)
(-207.511 -0.212636 0)
(-98.4486 0.088197 0)
(42.2138 -0.251211 0)
(189.281 -0.576716 0)
(304.392 -0.741312 0)
(344.808 -0.641861 0)
(349.156 -0.337222 0)
(348.421 -0.0170053 0)
(345.9 0.64817 0)
(337.974 1.0228 0)
(305.938 1.33468 0)
(137.981 1.85009 0)
(-148.832 2.21427 0)
(-198.06 2.33205 0)
(-186.455 2.32804 0)
(-151.111 2.24785 0)
(-106.845 2.1097 0)
(-64.4383 1.98312 0)
(-24.4383 1.84524 0)
(14.7247 1.61993 0)
(53.9987 1.22929 0)
(93.8129 0.752518 0)
(134.507 0.162098 0)
(176.759 0.218293 0)
(221.775 -0.100537 0)
(272.268 -0.798403 0)
(328.475 -1.53891 0)
(368.695 -2.02808 0)
(378.513 -1.97923 0)
(368.487 -1.39904 0)
(267.811 -0.583718 0)
(3.113 -0.45658 0)
(-87.2555 -0.45308 0)
(-83.4738 -0.645758 0)
(-60.1163 -0.882204 0)
(-27.669 -1.08379 0)
(-0.902341 -1.2203 0)
(20.0069 -1.25465 0)
(39.1518 -1.22283 0)
(58.8169 -1.15746 0)
(79.6174 -1.01249 0)
(101.375 -0.761494 0)
(123.618 -0.422319 0)
(145.549 0.341018 0)
(166.322 0.917026 0)
(186.411 1.37686 0)
(209.932 1.57855 0)
(247.643 1.49397 0)
(303.442 1.12709 0)
(332.241 0.548875 0)
(329.903 -0.0591952 0)
(282.101 -0.733176 0)
(106.334 -1.09339 0)
(-6.56861 -1.15005 0)
(-9.66834 -1.20186 0)
(2.35723 -1.30028 0)
(27.7959 -1.37661 0)
(51.7371 -1.34183 0)
(67.6687 -1.2408 0)
(79.7008 -1.12486 0)
(91.4616 -1.0249 0)
(104.605 -0.915756 0)
(119.248 -0.68407 0)
(134.365 -0.193435 0)
(148.427 0.534205 0)
(160.612 1.20988 0)
(171.938 1.77419 0)
(185.677 2.17721 0)
(209.134 2.38611 0)
(249.505 2.38844 0)
(277.698 2.18166 0)
(278.185 1.95706 0)
(257.909 1.61771 0)
(161.599 0.935389 0)
(43.5227 0.251888 0)
(25.0723 -0.147764 0)
(28.6431 -0.347195 0)
(42.4626 -0.558782 0)
(62.7214 -0.805731 0)
(78.2017 -1.0579 0)
(87.664 -1.2812 0)
(95.261 -1.48717 0)
(103.789 -1.65468 0)
(114.535 -1.76788 0)
(127.128 -1.80521 0)
(139.572 -1.73718 0)
(149.838 -1.57059 0)
(157.989 -1.32571 0)
(166.123 -1.03379 0)
(178.105 -0.714929 0)
(200.525 -0.313873 0)
(230.463 -0.020522 0)
(241.177 0.123621 0)
(238.093 0.232426 0)
(211.375 0.436761 0)
(122.418 0.537151 0)
(46.1699 0.516577 0)
(37.1655 0.524868 0)
(41.479 0.532392 0)
(53.2245 0.512798 0)
(71.5823 0.436369 0)
(87.306 0.318213 0)
(96.6763 0.237107 0)
(103.034 0.200284 0)
(109.321 0.212078 0)
(117.208 0.340138 0)
(127.269 0.520703 0)
(138.174 0.662182 0)
(147.417 0.827814 0)
(154.341 1.00264 0)
(160.911 1.1675 0)
(170.387 1.30946 0)
(188.125 1.39872 0)
(212.806 1.45972 0)
(222.902 1.50059 0)
(221.962 1.5219 0)
(204.723 1.55551 0)
(141.543 1.60404 0)
(68.0673 1.63718 0)
(53.2099 1.67752 0)
(55.2498 1.71947 0)
(63.6096 1.75323 0)
(79.7372 1.76883 0)
(96.33 1.76452 0)
(105.818 1.68838 0)
(110.706 1.54075 0)
(115.049 1.32876 0)
(120.406 1.05592 0)
(128.137 0.686527 0)
(137.961 0.249335 0)
(146.901 -0.159276 0)
(153.166 -0.390453 0)
(158.403 -0.549209 0)
(164.256 -0.67319 0)
(173.826 -0.762992 0)
(191.002 -0.826091 0)
(206.291 -0.907623 0)
(210.468 -1.04426 0)
(203.788 -1.16183 0)
(166.725 -1.22215 0)
(90.5463 -1.20603 0)
(58.1721 -1.16584 0)
(55.9796 -1.10261 0)
(60.1294 -1.03625 0)
(72.8874 -0.953801 0)
(89.3612 -0.855798 0)
(102.765 -0.728666 0)
(109.228 -0.548642 0)
(111.374 -0.324778 0)
(112.967 -0.0844393 0)
(115.986 0.185686 0)
(121.483 0.455985 0)
(129.36 0.708533 0)
(137.965 0.953559 0)
(145.075 1.18966 0)
(150.246 1.42401 0)
(156.125 1.61914 0)
(167.635 1.73741 0)
(186.289 1.78489 0)
(199.125 1.8717 0)
(192.385 1.9595 0)
(165.652 2.08323 0)
(106.302 2.1596 0)
(68.4264 2.15659 0)
(61.4436 2.11206 0)
(67.8689 1.99907 0)
(87.4647 1.73679 0)
(110.692 1.3838 0)
(124.724 0.970572 0)
(127.143 0.396782 0)
(126.434 -0.0689645 0)
(126.893 -0.416412 0)
(130.368 -0.71827 0)
(137.352 -0.946817 0)
(146.003 -1.06579 0)
(154.184 -1.09368 0)
(162.846 -1.0876 0)
(175.322 -1.02035 0)
(189.842 -0.7832 0)
(196.185 -0.397624 0)
(182.017 -0.0826363 0)
(144.269 0.140573 0)
(94.7813 0.30148 0)
(71.4849 0.330158 0)
(72.4209 0.313644 0)
(89.3377 0.195215 0)
(112.026 -0.172927 0)
(124.965 -0.522678 0)
(126.405 -0.699575 0)
(124.658 -0.927104 0)
(125.009 -1.18269 0)
(129.925 -1.42804 0)
(139.644 -1.59457 0)
(154.451 -1.6332 0)
(175.602 -1.52849 0)
(192.711 -1.28203 0)
(194.422 -1.08762 0)
(177.913 -0.985387 0)
(145.102 -0.735999 0)
(120.253 -0.315977 0)
(111.456 0.474966 0)
(117.557 1.0918 0)
(132.27 1.66769 0)
(144.226 2.21034 0)
(145.862 2.62726 0)
(141.731 2.72791 0)
(146.227 2.46269 0)
(159.742 1.97889 0)
(152.894 1.32563 0)
(130.265 0.875009 0)
(113.942 0.349664 0)
(114.132 0.0613737 0)
(128.376 -0.279957 0)
(142.001 -0.529575 0)
(143.395 -0.606909 0)
(138.635 -0.62381 0)
(129.569 -0.559138 0)
(125.65 -0.545445 0)
(127.082 -0.593245 0)
(134.585 -0.615728 0)
(142.458 -0.560676 0)
(143.623 -0.407673 0)
(140.832 -0.194144 0)
(135.335 0.0215002 0)
(132.853 0.108548 0)
(133.369 0.10558 0)
(136.508 0.0508811 0)
(139.649 0.00378287 0)
(139.869 -0.00298467 0)
(138.65 0.0145968 0)
(136.097 0.0476183 0)
(134.949 0.0605732 0)
(135.076 0.0601564 0)
(135.943 0.0536532 0)
(136.648 0.0488033 0)
(136.584 0.0491918 0)
(136.075 0.058443 0)
(135.488 0.0683531 0)
(135.425 0.0723904 0)
(135.77 0.0719136 0)
(136.568 0.0616492 0)
(137.024 0.0470123 0)
(136.973 0.0378469 0)
(136.644 0.0289003 0)
(136.058 0.0228751 0)
(135.758 0.0184613 0)
(135.716 0.0149012 0)
(135.748 0.0100301 0)
(135.761 0.00449651 0)
(135.695 0.00163221 0)
(135.562 0.00111684 0)
(135.464 0.00332543 0)
(135.45 0.00568678 0)
(135.537 0.00974325 0)
(135.696 0.01569 0)
(135.779 0.022868 0)
(135.748 0.0274006 0)
(135.662 0.0315816 0)
(135.577 0.0350903 0)
(135.542 0.0379066 0)
(135.558 0.0401239 0)
(135.638 0.0409673 0)
(135.708 0.0379007 0)
(135.707 0.0314504 0)
(135.658 0.0231317 0)
(135.564 0.0100948 0)
(135.428 -0.00302966 0)
(135.269 -0.0110578 0)
(135.13 -0.0134476 0)
(135.031 -0.0127745 0)
(134.965 -0.0102092 0)
(134.915 -0.0052493 0)
(134.871 9.6763e-05 0)
(134.824 0.00442796 0)
(134.767 0.0066221 0)
(134.681 0.00780369 0)
(134.559 0.00889158 0)
(134.439 0.00941535 0)
(134.385 0.00919685 0)
(134.376 0.00858854 0)
(134.41 0.00699126 0)
(134.507 0.00439213 0)
(134.656 0.00187935 0)
(134.786 0.000533146 0)
(134.831 0.000840754 0)
(134.822 0.00183448 0)
(134.788 0.00354518 0)
(134.719 0.00520483 0)
(134.593 0.0061729 0)
(134.422 0.00739405 0)
(134.286 0.00888582 0)
(134.236 0.00957549 0)
(134.217 0.00922564 0)
(134.231 0.00731772 0)
(134.3 0.000576039 0)
(134.574 -0.00511461 0)
(-2389.99 -0.645534 0)
(-992.823 16.549 0)
(-309.641 -1.47816 0)
(-304.263 1.3866 0)
(-206.802 3.052 0)
(-99.3202 3.09437 0)
(40.734 2.5068 0)
(187.432 1.08823 0)
(303.283 -0.721977 0)
(344.807 -1.42513 0)
(349.354 -1.34293 0)
(348.945 -1.08743 0)
(346.991 -0.129702 0)
(339.737 0.48064 0)
(308.452 1.26486 0)
(141.684 3.06879 0)
(-147.563 5.55642 0)
(-198.248 5.95586 0)
(-186.503 5.86867 0)
(-150.949 5.67203 0)
(-106.496 5.36894 0)
(-64.0379 5.03986 0)
(-24.1115 4.59635 0)
(14.8776 3.87427 0)
(53.8582 2.81607 0)
(93.2036 1.6815 0)
(133.416 0.561972 0)
(175.461 -1.02235 0)
(220.533 -2.622 0)
(270.864 -4.28624 0)
(326.882 -5.82216 0)
(367.904 -7.19897 0)
(378.03 -8.12298 0)
(368.343 -9.24265 0)
(270.148 -9.16091 0)
(6.14584 -5.24437 0)
(-86.944 -3.87275 0)
(-83.2857 -3.95676 0)
(-60.0005 -4.3152 0)
(-27.3484 -4.69569 0)
(-0.360377 -4.8053 0)
(20.6439 -4.60121 0)
(39.8198 -4.19436 0)
(59.4913 -3.66607 0)
(80.291 -2.9648 0)
(102.097 -2.01017 0)
(124.414 -0.599955 0)
(146.351 0.800351 0)
(167.123 2.33913 0)
(187.334 3.90557 0)
(211.169 5.3955 0)
(249.036 6.70817 0)
(303.977 7.67915 0)
(331.341 7.16338 0)
(328.464 5.98682 0)
(279.846 4.1837 0)
(104.476 1.98153 0)
(-7.14015 0.906712 0)
(-10.3752 0.58409 0)
(1.3242 0.122572 0)
(26.4268 -0.60015 0)
(50.2137 -1.33804 0)
(66.2419 -1.90788 0)
(78.4478 -2.24325 0)
(90.4059 -2.44213 0)
(103.751 -2.57304 0)
(118.72 -2.58218 0)
(134.253 -2.36755 0)
(148.703 -2.00254 0)
(161.157 -1.4965 0)
(172.707 -0.912284 0)
(186.746 -0.218 0)
(210.613 0.81499 0)
(251.096 2.22255 0)
(278.72 3.35261 0)
(279.152 3.79013 0)
(258.058 3.83743 0)
(159.43 2.54255 0)
(41.9307 0.40412 0)
(24.2271 -0.494868 0)
(27.9059 -0.991895 0)
(41.7508 -1.50785 0)
(61.9895 -2.10063 0)
(77.5203 -2.66409 0)
(87.0466 -3.16772 0)
(94.6733 -3.65191 0)
(103.219 -4.0972 0)
(114.027 -4.49378 0)
(126.777 -4.73816 0)
(139.452 -4.78945 0)
(149.943 -4.58162 0)
(158.231 -4.13025 0)
(166.54 -3.48932 0)
(178.871 -2.63876 0)
(201.77 -1.64881 0)
(231.792 -0.456986 0)
(242.31 0.623432 0)
(239.292 1.46049 0)
(212.458 2.3174 0)
(122.833 2.69548 0)
(46.3353 2.81841 0)
(37.3133 2.97592 0)
(41.5721 3.06719 0)
(53.1417 3.10219 0)
(71.2526 2.96966 0)
(86.7377 2.63669 0)
(95.9384 2.24211 0)
(102.171 1.83195 0)
(108.426 1.41812 0)
(116.474 1.02002 0)
(126.854 0.740601 0)
(138.068 0.597115 0)
(147.51 0.517992 0)
(154.605 0.523389 0)
(161.316 0.509378 0)
(170.951 0.602388 0)
(188.835 0.834305 0)
(213.621 1.24818 0)
(223.82 1.7044 0)
(222.882 2.07466 0)
(205.616 2.42017 0)
(142.213 2.54843 0)
(68.7389 2.47103 0)
(54.0135 2.59223 0)
(56.1208 2.79956 0)
(64.5435 3.11046 0)
(80.6385 3.51119 0)
(97.0028 3.9626 0)
(106.149 4.15945 0)
(110.788 4.05867 0)
(115 3.80331 0)
(120.13 3.43927 0)
(127.384 2.78503 0)
(136.724 1.66452 0)
(145.744 0.351847 0)
(152.404 -0.618732 0)
(157.906 -1.23336 0)
(163.94 -1.6651 0)
(173.692 -1.92706 0)
(190.94 -2.00807 0)
(205.944 -2.1522 0)
(209.899 -2.53315 0)
(203.125 -2.93083 0)
(166.102 -3.39242 0)
(90.1662 -3.81071 0)
(58.0457 -3.94471 0)
(55.8484 -3.93131 0)
(60.092 -3.87859 0)
(72.9066 -3.76888 0)
(89.4131 -3.59059 0)
(102.812 -3.3823 0)
(109.353 -3.12675 0)
(111.611 -2.82824 0)
(113.32 -2.51261 0)
(116.451 -2.13699 0)
(122.042 -1.68699 0)
(129.97 -1.19837 0)
(138.614 -0.691903 0)
(145.813 -0.186241 0)
(151.146 0.348358 0)
(157.233 0.95122 0)
(168.943 1.63397 0)
(187.857 2.52598 0)
(200.742 3.60549 0)
(193.921 4.44911 0)
(167.068 5.31995 0)
(107.306 5.84328 0)
(69.1628 6.04741 0)
(62.2322 6.25354 0)
(68.4143 6.42708 0)
(87.5374 6.41068 0)
(110.489 6.03613 0)
(124.15 5.33189 0)
(126.148 4.08312 0)
(125.285 2.99555 0)
(125.865 2.02573 0)
(129.404 1.10682 0)
(136.292 0.266409 0)
(144.737 -0.601793 0)
(152.853 -1.58466 0)
(161.805 -2.46287 0)
(174.935 -2.96297 0)
(190.434 -2.88738 0)
(197.457 -2.14407 0)
(183.607 -1.40059 0)
(145.829 -0.409559 0)
(95.54 0.288194 0)
(71.9074 0.495739 0)
(72.6909 0.481941 0)
(89.475 0.246341 0)
(112.092 -0.195429 0)
(124.766 -0.654183 0)
(125.777 -1.45563 0)
(123.787 -2.25155 0)
(124.019 -3.11329 0)
(128.867 -4.07991 0)
(138.634 -4.80526 0)
(153.573 -5.16577 0)
(175.106 -5.04317 0)
(192.474 -4.12323 0)
(193.902 -2.94951 0)
(176.76 -1.80011 0)
(143.557 -1.23465 0)
(119.063 -0.855261 0)
(110.899 0.240603 0)
(117.651 2.02094 0)
(132.704 4.11538 0)
(144.69 5.81519 0)
(146.537 6.81533 0)
(142.77 7.24678 0)
(147.365 7.276 0)
(159.85 6.78921 0)
(151.764 4.63719 0)
(129.166 2.77503 0)
(113.366 0.670473 0)
(113.9 -0.546184 0)
(128.515 -1.72267 0)
(142.808 -2.56828 0)
(144.791 -2.41397 0)
(140.121 -1.73337 0)
(130.367 -0.714429 0)
(125.611 -0.207647 0)
(126.479 -0.1686 0)
(133.526 -0.671494 0)
(141.885 -1.29577 0)
(143.724 -1.27948 0)
(141.23 -0.949113 0)
(135.893 -0.249725 0)
(133.04 0.289041 0)
(133.333 0.457245 0)
(136.138 0.393383 0)
(139.339 0.0903116 0)
(139.737 -0.0513084 0)
(138.661 -0.0895716 0)
(136.242 0.0202541 0)
(134.991 0.149007 0)
(135.054 0.175471 0)
(135.846 0.13933 0)
(136.589 0.0634942 0)
(136.57 0.040443 0)
(136.128 0.0471127 0)
(135.568 0.118164 0)
(135.483 0.172773 0)
(135.79 0.213775 0)
(136.529 0.211874 0)
(136.966 0.163777 0)
(136.92 0.126722 0)
(136.608 0.0906903 0)
(136.044 0.0749316 0)
(135.743 0.0697901 0)
(135.697 0.0627556 0)
(135.724 0.0499821 0)
(135.736 0.0313551 0)
(135.673 0.0174229 0)
(135.55 0.00724853 0)
(135.458 0.00513005 0)
(135.447 0.00584647 0)
(135.536 0.00682823 0)
(135.701 0.007714 0)
(135.792 0.0116565 0)
(135.768 0.0189297 0)
(135.691 0.0340641 0)
(135.61 0.0554047 0)
(135.574 0.0755791 0)
(135.587 0.0950033 0)
(135.657 0.113747 0)
(135.712 0.120274 0)
(135.702 0.114621 0)
(135.642 0.101192 0)
(135.534 0.0743172 0)
(135.387 0.0400697 0)
(135.233 0.00522275 0)
(135.107 -0.0197741 0)
(135.02 -0.0320856 0)
(134.962 -0.0349888 0)
(134.92 -0.0302975 0)
(134.886 -0.0198999 0)
(134.842 -0.00598512 0)
(134.782 0.0080685 0)
(134.692 0.0195101 0)
(134.565 0.0269618 0)
(134.44 0.0307441 0)
(134.385 0.0327619 0)
(134.375 0.0335416 0)
(134.407 0.0331128 0)
(134.499 0.0293757 0)
(134.644 0.0209753 0)
(134.777 0.0106528 0)
(134.828 0.00503335 0)
(134.822 0.00355765 0)
(134.791 0.00224943 0)
(134.726 0.002566 0)
(134.606 0.0075834 0)
(134.436 0.0169025 0)
(134.293 0.0255425 0)
(134.239 0.0295704 0)
(134.219 0.0313314 0)
(134.231 0.0308645 0)
(134.296 0.0222858 0)
(134.559 0.0142625 0)
(-2388.92 0.00689732 0)
(-1023.18 -62.8853 0)
(-301.246 1.12581 0)
(-300.754 5.66455 0)
(-207.222 6.93128 0)
(-101.679 6.15174 0)
(38.88 4.78601 0)
(185.179 2.53494 0)
(301.877 -0.220811 0)
(345.111 -1.43411 0)
(349.931 -1.41702 0)
(349.637 -1.20712 0)
(347.713 0.325 0)
(340.364 1.8153 0)
(309.449 3.5412 0)
(145.222 5.9899 0)
(-145.631 9.04717 0)
(-198.209 9.56017 0)
(-186.105 9.33034 0)
(-150.217 8.87996 0)
(-105.557 8.25562 0)
(-63.1434 7.60736 0)
(-23.4703 6.8556 0)
(15.1124 5.80762 0)
(53.5886 4.34787 0)
(92.455 2.77254 0)
(132.269 1.14229 0)
(173.821 -1.00098 0)
(218.122 -3.45569 0)
(267.795 -6.07255 0)
(323.617 -8.44199 0)
(365.254 -10.6111 0)
(375.902 -12.1912 0)
(366.929 -13.7304 0)
(273.987 -13.2339 0)
(13.1591 -8.22646 0)
(-86.1849 -5.97199 0)
(-82.9698 -5.7923 0)
(-60.1203 -6.13876 0)
(-27.2059 -6.59963 0)
(0.169368 -6.69548 0)
(21.3074 -6.41595 0)
(40.4898 -5.84745 0)
(60.2111 -5.06828 0)
(81.1683 -4.01803 0)
(103.145 -2.63885 0)
(125.529 -0.951984 0)
(147.397 1.00556 0)
(167.977 2.99178 0)
(188.04 4.90839 0)
(211.816 6.67193 0)
(249.361 8.31994 0)
(302.948 9.67241 0)
(328.278 9.61373 0)
(325.058 8.43783 0)
(275.176 6.32137 0)
(100.139 3.12811 0)
(-8.22472 1.3683 0)
(-11.4206 0.758364 0)
(0.024793 0.039612 0)
(24.8587 -0.881643 0)
(48.7157 -1.79194 0)
(65.0144 -2.48501 0)
(77.5224 -2.83283 0)
(89.8529 -2.93103 0)
(103.633 -2.87132 0)
(118.902 -2.67833 0)
(134.624 -2.3337 0)
(149.222 -1.8153 0)
(161.828 -1.21699 0)
(173.531 -0.582971 0)
(187.876 0.221332 0)
(212.391 1.46672 0)
(253.02 3.41527 0)
(278.743 4.83628 0)
(279.014 5.30683 0)
(256.444 5.1175 0)
(154.441 2.93821 0)
(38.9608 -0.112461 0)
(22.7419 -1.16167 0)
(26.7008 -1.70923 0)
(40.6142 -2.29671 0)
(60.7922 -3.02703 0)
(76.3814 -3.83606 0)
(86.0948 -4.51552 0)
(93.9431 -5.09394 0)
(102.707 -5.55055 0)
(113.691 -5.89883 0)
(126.624 -6.10628 0)
(139.581 -6.0539 0)
(150.478 -5.71831 0)
(159.216 -5.1282 0)
(167.914 -4.28193 0)
(180.593 -3.36167 0)
(203.734 -2.31756 0)
(233.676 -1.12962 0)
(244.158 0.145432 0)
(241.282 1.39861 0)
(214.121 2.59693 0)
(123.315 3.23104 0)
(46.8593 3.56001 0)
(37.9747 3.92952 0)
(42.0978 4.14982 0)
(53.4731 4.30942 0)
(71.2924 4.29919 0)
(86.4906 4.07051 0)
(95.5225 3.75677 0)
(101.666 3.36715 0)
(107.902 2.8775 0)
(116.014 2.28685 0)
(126.51 1.74041 0)
(137.854 1.3978 0)
(147.477 1.24971 0)
(154.763 1.27428 0)
(161.635 1.27634 0)
(171.467 1.36412 0)
(189.636 1.62531 0)
(214.527 2.17281 0)
(224.578 2.81549 0)
(223.573 3.36768 0)
(206.192 3.88509 0)
(142.257 4.02331 0)
(68.7243 3.87198 0)
(54.2073 4.07502 0)
(56.4042 4.40459 0)
(64.9526 4.89796 0)
(81.1836 5.4792 0)
(97.3332 6.01162 0)
(105.8 6.06434 0)
(110.107 5.73745 0)
(114.091 5.21011 0)
(118.968 4.45364 0)
(125.773 3.39045 0)
(134.83 2.01247 0)
(144.047 0.537782 0)
(151.2 -0.729395 0)
(157.079 -1.62725 0)
(163.452 -2.17767 0)
(173.528 -2.44625 0)
(191.039 -2.49304 0)
(205.718 -2.5473 0)
(209.408 -2.97418 0)
(202.445 -3.54958 0)
(165.331 -4.22344 0)
(89.8071 -4.80125 0)
(58.0948 -5.03253 0)
(55.9254 -5.06845 0)
(60.3331 -5.04729 0)
(73.3327 -4.93382 0)
(90.0127 -4.67031 0)
(103.456 -4.36892 0)
(110.142 -4.04832 0)
(112.571 -3.72605 0)
(114.418 -3.35599 0)
(117.637 -2.88417 0)
(123.244 -2.31174 0)
(131.121 -1.65041 0)
(139.68 -0.894147 0)
(146.815 -0.0570024 0)
(152.142 0.851719 0)
(158.313 1.82612 0)
(170.254 2.88864 0)
(189.324 4.12136 0)
(202.149 5.54407 0)
(195.281 6.65115 0)
(168.258 7.56949 0)
(107.762 7.92987 0)
(69.4177 7.98435 0)
(62.6057 8.10845 0)
(68.7301 8.21114 0)
(87.3378 8.21492 0)
(109.556 7.87838 0)
(122.335 6.99912 0)
(123.837 5.5512 0)
(122.979 4.21373 0)
(123.803 2.81304 0)
(127.693 1.29494 0)
(134.88 -0.17229 0)
(143.533 -1.50688 0)
(151.835 -2.63874 0)
(161.056 -3.44122 0)
(174.819 -3.92858 0)
(191.469 -3.97686 0)
(199.265 -3.34108 0)
(185.75 -2.45861 0)
(148.21 -1.10388 0)
(96.9453 0.120585 0)
(72.829 0.52544 0)
(73.1561 0.560329 0)
(89.5788 0.220117 0)
(112.183 -0.458936 0)
(124.945 -1.28828 0)
(125.499 -2.59922 0)
(123.001 -3.81637 0)
(122.783 -5.10175 0)
(127.157 -6.67833 0)
(136.6 -7.99606 0)
(151.34 -8.69364 0)
(173.028 -8.59622 0)
(190.741 -7.18031 0)
(191.977 -5.122 0)
(173.982 -3.14095 0)
(139.833 -2.36958 0)
(116.317 -2.08278 0)
(109.787 -0.522123 0)
(117.499 2.35438 0)
(132.727 6.44374 0)
(144.054 9.99048 0)
(145.629 12.1147 0)
(142.743 12.6718 0)
(148.953 12.447 0)
(160.557 11.2709 0)
(150.433 7.57715 0)
(127.955 4.45955 0)
(113.016 1.08205 0)
(113.944 -0.864288 0)
(128.595 -3.06083 0)
(143.733 -4.86154 0)
(146.891 -5.14093 0)
(142.18 -4.49751 0)
(132.56 -2.6426 0)
(126.24 -1.23803 0)
(126.06 -0.917814 0)
(132.184 -1.03262 0)
(140.887 -1.47587 0)
(143.699 -1.40021 0)
(141.572 -1.03476 0)
(136.569 -0.331432 0)
(133.263 0.282726 0)
(133.245 0.490019 0)
(135.59 0.456518 0)
(138.767 0.154675 0)
(139.425 -0.0105695 0)
(138.555 -0.0453843 0)
(136.389 0.0716965 0)
(135.028 0.21477 0)
(135.013 0.243689 0)
(135.685 0.194019 0)
(136.456 0.0972718 0)
(136.506 0.0700963 0)
(136.154 0.0882273 0)
(135.657 0.179654 0)
(135.553 0.255512 0)
(135.805 0.306035 0)
(136.445 0.291674 0)
(136.856 0.22367 0)
(136.825 0.176863 0)
(136.544 0.133861 0)
(136.016 0.118863 0)
(135.713 0.111714 0)
(135.66 0.0994041 0)
(135.681 0.0812425 0)
(135.693 0.0561288 0)
(135.638 0.0373491 0)
(135.531 0.023231 0)
(135.448 0.0206634 0)
(135.439 0.0209521 0)
(135.53 0.0213067 0)
(135.698 0.0225132 0)
(135.799 0.031288 0)
(135.784 0.0427313 0)
(135.714 0.0640298 0)
(135.638 0.092106 0)
(135.603 0.118658 0)
(135.616 0.144888 0)
(135.671 0.169821 0)
(135.697 0.173509 0)
(135.672 0.164229 0)
(135.598 0.144129 0)
(135.475 0.112957 0)
(135.315 0.0702462 0)
(135.168 0.0225066 0)
(135.065 -0.0161106 0)
(135.004 -0.0365561 0)
(134.963 -0.039888 0)
(134.937 -0.0330366 0)
(134.911 -0.0209907 0)
(134.869 -0.00433013 0)
(134.809 0.0143883 0)
(134.714 0.0311389 0)
(134.58 0.04352 0)
(134.448 0.0505671 0)
(134.391 0.053696 0)
(134.381 0.054772 0)
(134.408 0.0543413 0)
(134.493 0.0491315 0)
(134.631 0.0377364 0)
(134.768 0.0231033 0)
(134.826 0.013484 0)
(134.825 0.0106861 0)
(134.796 0.00958424 0)
(134.736 0.0123128 0)
(134.623 0.019906 0)
(134.46 0.0316376 0)
(134.313 0.0431536 0)
(134.253 0.0492756 0)
(134.232 0.0529412 0)
(134.241 0.0542759 0)
(134.298 0.0423147 0)
(134.542 0.0318691 0)
(-2391.74 -0.00461102 0)
(-717.849 -63.4664 0)
(-288.839 1.22972 0)
(-298.401 6.05866 0)
(-208.958 7.23829 0)
(-103.669 8.55854 0)
(36.232 7.43348 0)
(181.052 4.83787 0)
(299.312 1.28432 0)
(345.625 -0.366204 0)
(350.906 -0.347961 0)
(350.722 -0.219481 0)
(348.919 1.15471 0)
(341.951 2.54831 0)
(312.051 4.19121 0)
(151.677 7.26214 0)
(-141.711 11.6645 0)
(-197.681 12.3462 0)
(-185.546 11.9628 0)
(-149.613 11.3065 0)
(-104.883 10.4484 0)
(-62.6351 9.57529 0)
(-23.3209 8.59508 0)
(14.8301 7.3604 0)
(52.843 5.74295 0)
(91.2562 3.91192 0)
(130.621 1.90933 0)
(171.538 -0.675272 0)
(214.99 -3.54844 0)
(263.81 -6.70027 0)
(319.161 -10.2768 0)
(361.614 -13.4052 0)
(372.772 -15.5685 0)
(364.46 -17.5997 0)
(278.455 -17.3966 0)
(22.9542 -10.9331 0)
(-84.8514 -7.37022 0)
(-82.1502 -7.08925 0)
(-60.0537 -7.3175 0)
(-27.1473 -7.66988 0)
(0.572854 -7.61999 0)
(21.9219 -7.21507 0)
(41.2625 -6.5477 0)
(61.1943 -5.63107 0)
(82.3555 -4.33807 0)
(104.412 -2.65685 0)
(126.668 -0.667324 0)
(148.258 1.4699 0)
(168.522 3.53587 0)
(188.329 5.38284 0)
(212.159 7.07966 0)
(249.902 9.12487 0)
(302.176 10.9408 0)
(325.028 10.9095 0)
(321.245 9.71594 0)
(269.176 7.45714 0)
(93.9637 3.70236 0)
(-9.62791 1.70349 0)
(-12.6548 1.14325 0)
(-1.47918 0.494919 0)
(23.0738 -0.327673 0)
(46.9766 -1.11291 0)
(63.5973 -1.69619 0)
(76.4807 -1.97722 0)
(89.1805 -2.05232 0)
(103.273 -2.00224 0)
(118.8 -1.82173 0)
(134.682 -1.4356 0)
(149.41 -0.851994 0)
(162.195 -0.161764 0)
(174.168 0.499628 0)
(189.019 1.35221 0)
(214.422 2.57911 0)
(254.957 4.23276 0)
(278.269 5.28023 0)
(278.27 5.51486 0)
(254.033 4.96244 0)
(148.357 2.27413 0)
(35.5661 -1.01654 0)
(21.0577 -1.98262 0)
(25.3525 -2.48971 0)
(39.4774 -3.09844 0)
(59.6389 -3.80439 0)
(75.2038 -4.44223 0)
(85.0071 -4.90806 0)
(93.028 -5.29301 0)
(102.079 -5.61351 0)
(113.498 -5.84592 0)
(126.857 -5.92643 0)
(140.126 -5.71457 0)
(151.246 -5.18218 0)
(160.2 -4.52631 0)
(169.064 -3.96831 0)
(181.974 -3.40834 0)
(205.444 -2.60082 0)
(235.52 -1.47684 0)
(246.008 -0.295402 0)
(243.318 0.71831 0)
(215.864 1.71358 0)
(124.058 2.32262 0)
(47.6554 2.88671 0)
(38.9737 3.49792 0)
(42.9251 4.00439 0)
(54.0679 4.43915 0)
(71.56 4.57621 0)
(86.4805 4.48585 0)
(95.2944 4.32384 0)
(101.281 4.08502 0)
(107.431 3.73041 0)
(115.561 3.28716 0)
(126.226 2.82204 0)
(137.842 2.37616 0)
(147.704 2.10186 0)
(155.149 2.05402 0)
(162.118 2.16526 0)
(172.157 2.2182 0)
(190.662 2.45811 0)
(215.766 2.94626 0)
(225.802 3.62292 0)
(224.764 4.22639 0)
(207.203 4.7777 0)
(142.34 4.72296 0)
(68.8374 4.26103 0)
(54.681 4.47484 0)
(57.0509 4.88731 0)
(65.7614 5.49864 0)
(81.9359 6.13515 0)
(97.4455 6.5435 0)
(105.068 6.37982 0)
(109.131 5.93198 0)
(112.737 5.18442 0)
(117.562 4.14057 0)
(124.05 2.96347 0)
(132.908 1.61584 0)
(142.314 0.24686 0)
(149.895 -0.853037 0)
(156.143 -1.57081 0)
(162.903 -2.01969 0)
(173.468 -2.27489 0)
(191.288 -2.21327 0)
(205.511 -2.21441 0)
(208.896 -2.56117 0)
(201.619 -3.05101 0)
(164.275 -3.74207 0)
(89.1984 -4.42995 0)
(58.132 -4.90079 0)
(56.0779 -5.01189 0)
(60.667 -5.03788 0)
(73.8961 -4.93134 0)
(90.7643 -4.59872 0)
(104.155 -4.2384 0)
(110.883 -3.93708 0)
(113.413 -3.7231 0)
(115.366 -3.48261 0)
(118.676 -3.14259 0)
(124.337 -2.70662 0)
(132.266 -2.20822 0)
(140.94 -1.61855 0)
(148.268 -0.826201 0)
(153.821 0.208299 0)
(160.252 1.42132 0)
(172.542 2.73545 0)
(191.754 4.15873 0)
(204.32 5.74597 0)
(197.288 6.939 0)
(169.803 7.92452 0)
(108.223 8.39773 0)
(69.6919 8.40593 0)
(62.9859 8.3553 0)
(69.0652 8.24625 0)
(87.3747 8.17648 0)
(109.038 7.91491 0)
(120.961 7.20278 0)
(122.061 6.08361 0)
(120.971 4.95433 0)
(121.584 3.6874 0)
(125.355 2.0442 0)
(132.618 0.32495 0)
(141.583 -1.24987 0)
(150.461 -2.54305 0)
(160.403 -3.37514 0)
(174.875 -4.01419 0)
(192.484 -4.21137 0)
(201.133 -3.66225 0)
(188.315 -2.9385 0)
(151.502 -1.62455 0)
(99.1057 -0.308857 0)
(74.3664 0.366486 0)
(73.9418 0.491369 0)
(89.8314 0.075866 0)
(112.322 -0.780173 0)
(125.151 -1.83938 0)
(125.348 -3.31449 0)
(122.175 -4.70814 0)
(121.256 -6.52245 0)
(124.912 -8.58717 0)
(133.693 -10.5943 0)
(147.954 -11.8006 0)
(169.463 -11.85 0)
(187.104 -10.2058 0)
(187.874 -7.59109 0)
(168.113 -4.8652 0)
(132.886 -3.88693 0)
(111.118 -3.6561 0)
(107.086 -2.07463 0)
(116.665 1.82116 0)
(132.37 7.86091 0)
(142.695 13.2811 0)
(143.906 16.5502 0)
(142.321 17.6064 0)
(150.907 17.4545 0)
(161.68 15.503 0)
(149.574 10.1949 0)
(127.533 5.52682 0)
(113.722 1.40356 0)
(114.819 -0.751329 0)
(128.667 -3.5145 0)
(144.794 -6.26638 0)
(149.645 -6.63092 0)
(145.113 -6.04704 0)
(135.52 -4.40864 0)
(127.502 -2.48081 0)
(126.058 -1.66514 0)
(131.121 -1.34365 0)
(139.868 -1.24207 0)
(143.386 -1.07654 0)
(141.604 -0.809168 0)
(136.993 -0.284402 0)
(133.326 0.208069 0)
(133.056 0.35391 0)
(134.992 0.358042 0)
(138.119 0.168009 0)
(139.06 0.0647738 0)
(138.385 0.0605498 0)
(136.462 0.153586 0)
(134.987 0.248173 0)
(134.886 0.239668 0)
(135.455 0.180827 0)
(136.278 0.0986887 0)
(136.442 0.0991172 0)
(136.178 0.147604 0)
(135.734 0.257514 0)
(135.6 0.331591 0)
(135.783 0.363674 0)
(136.316 0.330235 0)
(136.715 0.249396 0)
(136.707 0.199171 0)
(136.471 0.159564 0)
(135.989 0.152386 0)
(135.667 0.150861 0)
(135.601 0.132933 0)
(135.616 0.10665 0)
(135.631 0.0713802 0)
(135.592 0.0494263 0)
(135.508 0.0358311 0)
(135.437 0.0385239 0)
(135.431 0.0419746 0)
(135.521 0.0425389 0)
(135.695 0.0399992 0)
(135.809 0.0444163 0)
(135.806 0.0595707 0)
(135.745 0.085605 0)
(135.674 0.122359 0)
(135.64 0.156057 0)
(135.651 0.18659 0)
(135.681 0.210493 0)
(135.679 0.21139 0)
(135.637 0.202516 0)
(135.548 0.178203 0)
(135.402 0.139756 0)
(135.231 0.0877128 0)
(135.092 0.033941 0)
(135.018 -0.00525997 0)
(134.981 -0.025297 0)
(134.966 -0.030877 0)
(134.954 -0.0274008 0)
(134.936 -0.0160794 0)
(134.9 -0.00062654 0)
(134.844 0.0196548 0)
(134.748 0.04034 0)
(134.606 0.0586052 0)
(134.463 0.0703744 0)
(134.401 0.0753208 0)
(134.389 0.0759151 0)
(134.411 0.074029 0)
(134.488 0.0663683 0)
(134.617 0.0514773 0)
(134.757 0.0332727 0)
(134.827 0.0212895 0)
(134.834 0.0165543 0)
(134.808 0.0140272 0)
(134.756 0.0163867 0)
(134.654 0.0259704 0)
(134.499 0.0427354 0)
(134.347 0.0606316 0)
(134.277 0.0718966 0)
(134.254 0.0793854 0)
(134.262 0.0836601 0)
(134.311 0.0701506 0)
(134.528 0.0605436 0)
(-2397.23 -1.24692 0)
(-1074.59 -0.680555 0)
(-286.886 3.69822 0)
(-295.148 7.93547 0)
(-208.879 9.87367 0)
(-105.855 10.0855 0)
(32.1449 8.56301 0)
(175.559 5.59086 0)
(295.994 2.14612 0)
(346.902 0.56933 0)
(353.202 0.879446 0)
(353.101 1.28198 0)
(351.044 2.60687 0)
(344.067 3.7047 0)
(315.168 4.90188 0)
(159.856 7.91256 0)
(-136.175 13.0357 0)
(-196.891 13.6944 0)
(-184.963 13.0838 0)
(-149.188 12.1706 0)
(-104.392 11.1059 0)
(-62.2202 10.0127 0)
(-23.2657 8.88573 0)
(14.2917 7.61003 0)
(51.6379 6.05579 0)
(89.4492 4.27271 0)
(128.316 2.16465 0)
(168.73 -0.352323 0)
(211.474 -3.62032 0)
(259.349 -7.65424 0)
(313.952 -11.3512 0)
(357.311 -14.794 0)
(369.103 -17.1563 0)
(361.625 -19.021 0)
(283.195 -18.748 0)
(34.7779 -11.6243 0)
(-83.531 -7.21765 0)
(-81.493 -6.79526 0)
(-60.2809 -6.91807 0)
(-27.3038 -7.13822 0)
(0.916146 -7.07425 0)
(22.4979 -6.62654 0)
(41.9271 -5.90966 0)
(61.9833 -4.98316 0)
(83.2974 -3.75865 0)
(105.397 -2.20656 0)
(127.503 -0.36652 0)
(148.774 1.67177 0)
(168.696 3.57549 0)
(188.352 5.30776 0)
(212.407 6.91665 0)
(250.39 8.61314 0)
(301.221 10.1984 0)
(321.691 10.1221 0)
(317.334 9.04617 0)
(262.89 6.8184 0)
(87.6031 3.18492 0)
(-11.1313 1.45177 0)
(-13.9595 1.1771 0)
(-2.99291 0.837956 0)
(21.2401 0.32204 0)
(45.0266 -0.150972 0)
(61.7407 -0.398867 0)
(74.7533 -0.403641 0)
(87.6241 -0.338487 0)
(101.927 -0.24668 0)
(117.707 -0.0803331 0)
(133.915 0.352336 0)
(149.003 1.07072 0)
(162.122 1.73051 0)
(174.409 2.15541 0)
(189.733 2.58656 0)
(215.833 3.32668 0)
(256.23 4.4165 0)
(277.933 5.09859 0)
(277.599 4.77901 0)
(251.499 4.02438 0)
(141.965 1.4177 0)
(32.2543 -1.62171 0)
(19.4202 -2.49783 0)
(24.0104 -3.01609 0)
(38.3852 -3.4966 0)
(58.6398 -3.85885 0)
(74.3954 -4.12987 0)
(84.4288 -4.27533 0)
(92.6175 -4.33675 0)
(101.779 -4.377 0)
(113.292 -4.39027 0)
(126.826 -4.27981 0)
(140.341 -3.93938 0)
(151.619 -3.37668 0)
(160.568 -2.82692 0)
(169.445 -2.47259 0)
(182.592 -2.18338 0)
(206.47 -1.92238 0)
(236.771 -1.46567 0)
(247.319 -0.683039 0)
(244.832 -0.0888886 0)
(217.366 0.475406 0)
(125.242 0.849463 0)
(49.044 1.43177 0)
(40.423 2.13751 0)
(44.1897 2.8509 0)
(55.1318 3.58374 0)
(72.2961 4.1141 0)
(86.8604 4.43065 0)
(95.4122 4.59326 0)
(101.242 4.63257 0)
(107.285 4.55759 0)
(115.327 4.37046 0)
(125.884 4.08769 0)
(137.417 3.7754 0)
(147.409 3.51801 0)
(155.159 3.33749 0)
(162.431 3.14933 0)
(172.755 3.16905 0)
(191.645 3.45852 0)
(216.944 3.96239 0)
(226.863 4.50502 0)
(225.758 4.89412 0)
(207.728 5.0799 0)
(141.675 4.59988 0)
(68.7853 3.71389 0)
(55.2418 3.75859 0)
(57.8675 4.0054 0)
(66.8219 4.48795 0)
(82.9562 5.04776 0)
(97.8941 5.31655 0)
(104.847 5.04174 0)
(108.661 4.51306 0)
(111.703 3.84406 0)
(116.196 3.06371 0)
(122.515 2.11135 0)
(131.378 1.09394 0)
(141.13 0.234052 0)
(149.086 -0.438896 0)
(155.578 -0.925128 0)
(162.557 -1.22572 0)
(173.459 -1.31234 0)
(191.609 -1.16621 0)
(205.438 -1.05473 0)
(208.58 -1.15356 0)
(200.976 -1.38787 0)
(163.135 -1.97568 0)
(88.2325 -2.96253 0)
(57.9704 -3.66702 0)
(56.0685 -3.79417 0)
(60.827 -3.7188 0)
(74.2547 -3.41041 0)
(91.2863 -2.97784 0)
(104.459 -2.5977 0)
(111.14 -2.2715 0)
(113.784 -2.06183 0)
(115.882 -1.99184 0)
(119.335 -1.90223 0)
(125.097 -1.77661 0)
(133.126 -1.59547 0)
(142.036 -1.35198 0)
(149.739 -0.900399 0)
(155.62 -0.25385 0)
(162.289 0.454999 0)
(174.853 1.37355 0)
(194.149 2.46092 0)
(206.49 3.80671 0)
(199.37 4.91861 0)
(171.593 6.01265 0)
(109.122 6.60251 0)
(70.2276 6.70895 0)
(63.5774 6.70522 0)
(69.6785 6.67578 0)
(87.8211 6.57919 0)
(109.056 6.17367 0)
(120.213 5.35593 0)
(120.998 4.54198 0)
(119.611 3.70416 0)
(119.797 2.98774 0)
(123.36 2.09245 0)
(130.779 1.11169 0)
(140.034 0.0687155 0)
(149.172 -1.12493 0)
(159.511 -2.22371 0)
(174.553 -3.07348 0)
(193.144 -3.79871 0)
(202.875 -3.71634 0)
(190.974 -3.22929 0)
(155.282 -2.01606 0)
(101.778 -0.569365 0)
(76.4359 0.27117 0)
(74.9818 0.417538 0)
(90.1298 -0.0229612 0)
(112.374 -1.06 0)
(125.421 -2.23582 0)
(125.646 -3.7218 0)
(121.885 -5.30088 0)
(120.266 -7.2003 0)