/*--------------------------------*- C++ -*----------------------------------*\
| =========                 |                                                 |
| \\      /  F ield         | OpenFOAM: The Open Source CFD Toolbox           |
|  \\    /   O peration     | Version:  2306                                  |
|   \\  /    A nd           | Website:  www.openfoam.com                      |
|    \\/     M anipulation  |                                                 |
\*---------------------------------------------------------------------------*/
FoamFile
{
    version     2.0;
    format      ascii;
    arch        "LSB;label=32;scalar=64";
    class       volVectorField;
    location    "0.11";
    object      U;
}
// * * * * * * * * * * * * * * * * * * * * * * * * * * * * * * * * * * * * * //

dimensions      [0 1 -1 0 0 0 0];

internalField   nonuniform List<vector> 
6000
(
(500 6.43497e-15 0)
(500 -1.92355e-14 0)
(500 1.93446e-14 0)
(500 2.66586e-15 0)
(500 7.5451e-14 0)
(500 3.75311e-14 0)
(500 9.21633e-14 0)
(500 1.44988e-13 0)
(500 1.65949e-13 0)
(500 2.5779e-13 0)
(500 2.06703e-13 0)
(500 2.91476e-13 0)
(500 2.24064e-13 0)
(500 2.79757e-13 0)
(500 1.81137e-13 0)
(500 -4.00074e-15 0)
(500 8.52805e-14 0)
(500 3.70941e-14 0)
(500 -1.13137e-13 0)
(500 -1.67938e-13 0)
(500 -7.46652e-14 0)
(500 -1.48895e-14 0)
(500 -9.76003e-14 0)
(500 -9.70475e-14 0)
(500 -6.57864e-14 0)
(500 -1.56325e-13 0)
(500 -1.65067e-13 0)
(500 -9.39954e-14 0)
(500 -9.50223e-14 0)
(500 -1.52639e-13 0)
(500 -2.14519e-14 0)
(500 3.38497e-14 0)
(500 9.17812e-14 0)
(500 6.20888e-14 0)
(500 4.43849e-14 0)
(500 4.16401e-14 0)
(500 -3.32044e-15 0)
(500 -3.56993e-14 0)
(500 -1.61684e-13 0)
(500 6.13331e-13 0)
(500 -3.52007e-12 0)
(500 1.01276e-11 0)
(500 2.98254e-12 0)
(500 -2.18481e-10 0)
(500 1.45568e-09 0)
(500 -4.96799e-09 0)
(500 1.36872e-08 0)
(500 -6.86458e-09 0)
(500 -4.25258e-08 0)
(500 2.37898e-07 0)
(499.999 -1.25214e-07 0)
(499.998 -1.117e-06 0)
(499.994 6.93636e-06 0)
(499.985 -1.351e-05 0)
(499.965 9.15317e-06 0)
(499.924 7.55023e-05 0)
(499.843 -0.000244049 0)
(499.703 0.000485156 0)
(499.505 -0.000287741 0)
(499.331 -7.82347e-05 0)
(499.278 0.000158425 0)
(499.28 0.000176039 0)
(499.306 0.000118091 0)
(499.386 4.43861e-05 0)
(499.545 0.000431885 0)
(499.791 -0.000533066 0)
(500.116 -0.00100073 0)
(500.498 0.00247207 0)
(500.913 0.00122728 0)
(501.345 -0.00414748 0)
(501.776 -4.4026e-05 0)
(502.19 0.00767497 0)
(502.586 0.00124026 0)
(502.965 -0.00743151 0)
(503.316 -0.00116489 0)
(503.625 0.00921264 0)
(503.899 0.00300373 0)
(504.14 -0.00681428 0)
(504.345 -0.00365305 0)
(504.508 0.0056581 0)
(504.636 0.00561732 0)
(504.746 -0.00206683 0)
(504.84 -0.00470496 0)
(504.92 -0.00149864 0)
(504.988 0.00325364 0)
(505.047 0.00274236 0)
(505.104 -0.00138121 0)
(505.158 -0.00277063 0)
(505.21 -0.000818465 0)
(505.255 0.00177404 0)
(505.29 0.00126931 0)
(505.309 -0.000679794 0)
(505.313 -0.00110828 0)
(505.314 -0.000965536 0)
(505.313 -0.000227457 0)
(505.311 0.000462385 0)
(505.306 0.000491039 0)
(505.298 0.000116437 0)
(505.286 -0.000374179 0)
(505.269 -0.000564195 0)
(505.249 -3.97589e-05 0)
(505.227 0.000293389 0)
(505.205 -0.000110773 0)
(505.186 -0.000468261 0)
(505.171 -0.000148132 0)
(505.159 0.000239331 0)
(505.149 0.000301294 0)
(505.142 0.000178807 0)
(505.136 -6.69223e-05 0)
(505.131 -0.0001507 0)
(505.127 -0.000121366 0)
(505.123 -3.50562e-05 0)
(505.119 6.30231e-05 0)
(505.115 9.56369e-05 0)
(505.113 8.92391e-05 0)
(505.111 6.5305e-05 0)
(505.11 -1.41975e-06 0)
(505.111 -6.21848e-05 0)
(505.111 -8.41829e-05 0)
(505.111 -0.000102782 0)
(505.111 -7.78386e-05 0)
(505.111 -8.68895e-06 0)
(505.114 3.64189e-05 0)
(505.118 4.46007e-05 0)
(505.124 3.19769e-05 0)
(505.131 1.11598e-05 0)
(505.14 -3.10376e-05 0)
(505.15 -3.89774e-05 0)
(505.16 1.80164e-05 0)
(505.169 4.97191e-05 0)
(505.178 2.64472e-05 0)
(505.186 1.66174e-05 0)
(505.193 7.39219e-06 0)
(505.198 3.32731e-05 0)
(505.201 1.98618e-05 0)
(505.203 -3.548e-06 0)
(505.203 -3.54108e-05 0)
(505.204 -4.21047e-05 0)
(505.204 -3.50442e-05 0)
(505.203 -2.54847e-05 0)
(505.2 -2.08944e-05 0)
(505.196 -1.5278e-05 0)
(505.19 -8.41211e-06 0)
(505.183 -3.71586e-07 0)
(505.176 1.07211e-05 0)
(505.169 2.22586e-05 0)
(505.164 3.21656e-05 0)
(505.161 3.67556e-05 0)
(505.157 2.72085e-05 0)
(505.154 1.5979e-05 0)
(505.151 -1.483e-05 0)
(505.149 -4.39929e-05 0)
(505.146 -6.37969e-05 0)
(505.144 -6.94749e-05 0)
(505.142 -7.03766e-05 0)
(505.14 -6.54706e-05 0)
(505.138 -2.39045e-05 0)
(505.135 1.08569e-05 0)
(505.131 3.01147e-05 0)
(505.126 3.97829e-05 0)
(505.119 4.30567e-05 0)
(505.115 4.97146e-05 0)
(505.113 3.99876e-05 0)
(505.113 1.66068e-05 0)
(505.114 -1.11796e-05 0)
(505.116 -3.88473e-05 0)
(505.12 -4.34147e-05 0)
(505.125 -4.09109e-05 0)
(505.134 -3.31349e-05 0)
(505.143 2.00267e-05 0)
(505.152 1.05069e-05 0)
(505.161 -2.32586e-05 0)
(505.168 -3.21453e-05 0)
(505.174 -3.23888e-05 0)
(505.179 -1.46134e-05 0)
(505.183 1.34876e-05 0)
(505.187 2.56125e-05 0)
(505.191 3.58683e-05 0)
(505.194 4.57852e-05 0)
(505.197 6.07596e-05 0)
(505.199 5.67788e-05 0)
(505.2 2.94078e-05 0)
(505.2 -1.01543e-05 0)
(505.201 -4.15152e-05 0)
(505.2 -5.86758e-05 0)
(505.199 -6.21013e-05 0)
(505.196 -5.95938e-05 0)
(505.191 -3.42084e-05 0)
(505.185 5.8982e-06 0)
(505.179 2.88981e-05 0)
(505.172 4.02505e-05 0)
(505.166 3.77214e-05 0)
(505.162 2.59163e-05 0)
(505.159 2.85914e-05 0)
(505.155 2.55811e-05 0)
(505.152 1.77875e-05 0)
(505.15 1.14923e-06 0)
(505.148 -1.16605e-05 0)
(505.146 -7.20105e-06 0)
(505.144 3.17759e-06 0)
(505.143 6.39164e-06 0)
(505.141 2.06754e-06 0)
(505.141 -2.02482e-05 0)
(505.14 -5.13898e-05 0)
(505.138 -6.02298e-05 0)
(505.135 -5.73915e-05 0)
(505.13 -3.68957e-05 0)
(505.124 2.78705e-05 0)
(505.117 0.000125565 0)
(505.111 0.000154073 0)
(505.108 0.000154273 0)
(505.108 0.000128682 0)
(505.11 -9.22362e-06 0)
(505.113 -0.000137082 0)
(505.117 -0.000154148 0)
(505.123 -0.000162851 0)
(505.132 -0.00016818 0)
(505.143 -9.05941e-05 0)
(505.152 9.7072e-05 0)
(505.163 0.000163091 0)
(505.171 0.000155279 0)
(505.177 0.000113586 0)
(505.181 4.2038e-05 0)
(505.185 -5.55131e-05 0)
(505.188 -0.000112489 0)
(505.19 -0.000142907 0)
(505.193 -0.000149962 0)
(505.196 -5.91623e-05 0)
(505.199 4.04837e-05 0)
(505.202 5.59078e-05 0)
(505.204 6.91367e-05 0)
(505.204 6.26581e-05 0)
(505.205 2.17998e-05 0)
(505.205 -5.00455e-05 0)
(505.203 -7.95535e-05 0)
(505.2 -9.00551e-05 0)
(505.196 -2.65344e-05 0)
(505.189 0.000122548 0)
(505.182 0.000197714 0)
(505.174 0.000252976 0)
(505.167 0.000288477 0)
(505.161 0.000224269 0)
(505.158 2.0472e-06 0)
(505.155 -0.000187807 0)
(505.152 -0.000272887 0)
(505.15 -0.00037739 0)
(505.148 -0.000412062 0)
(505.146 -0.000298519 0)
(505.143 -2.10373e-05 0)
(505.142 0.00014847 0)
(505.141 0.000248781 0)
(505.14 0.000304736 0)
(505.139 0.000225616 0)
(505.137 6.23138e-05 0)
(505.133 -4.96954e-05 0)
(505.129 -0.000103885 0)
(505.122 -0.000110253 0)
(505.114 -4.84106e-05 0)
(505.105 4.77093e-05 0)
(505.1 0.000120467 0)
(505.098 0.000159009 0)
(505.099 0.000125211 0)
(505.101 -2.61851e-05 0)
(505.103 -0.00012485 0)
(505.109 -0.000228953 0)
(505.117 -0.000275317 0)
(505.129 -0.000187728 0)
(505.142 -5.12683e-06 0)
(505.155 0.000219017 0)
(505.168 0.000255355 0)
(505.176 0.000254806 0)
(505.182 0.00022552 0)
(505.186 5.43751e-05 0)
(505.189 -0.000211581 0)
(505.193 -0.000343338 0)
(505.196 -0.000471259 0)
(505.199 -0.000451959 0)
(505.202 -0.000223914 0)
(505.206 0.000192664 0)
(505.21 0.000345232 0)
(505.212 0.000438619 0)
(505.213 0.000500086 0)
(505.213 0.000430496 0)
(505.214 0.000110423 0)
(505.214 -0.000275835 0)
(505.211 -0.000408012 0)
(505.207 -0.00041945 0)
(505.201 -0.000376556 0)
(505.192 -0.000227976 0)
(505.183 -3.77971e-05 0)
(505.175 0.000125468 0)
(505.167 0.000242455 0)
(505.161 0.000255107 0)
(505.158 0.000211925 0)
(505.155 0.000107987 0)
(505.151 1.30428e-05 0)
(505.148 -9.39595e-05 0)
(505.145 -0.000186336 0)
(505.141 -0.000174605 0)
(505.136 -9.12311e-05 0)
(500 4.30174e-14 0)
(500 6.37887e-14 0)
(500 4.33746e-14 0)
(500 -8.9902e-14 0)
(500 3.56956e-14 0)
(500 1.69098e-13 0)
(500 2.45174e-13 0)
(500 1.39944e-13 0)
(500 1.92644e-13 0)
(500 2.28778e-13 0)
(500 2.84503e-13 0)
(500 3.63663e-13 0)
(500 4.47515e-13 0)
(500 3.6466e-13 0)
(500 3.01408e-13 0)
(500 1.19111e-13 0)
(500 1.01652e-13 0)
(500 -7.37742e-14 0)
(500 -1.80835e-13 0)
(500 -2.30868e-13 0)
(500 -1.57588e-13 0)
(500 -8.02544e-14 0)
(500 -2.13895e-13 0)
(500 -1.83546e-13 0)
(500 -2.20007e-13 0)
(500 -2.65557e-13 0)
(500 -2.44738e-13 0)
(500 -2.15547e-13 0)
(500 -2.17268e-13 0)
(500 -2.01569e-13 0)
(500 1.68407e-15 0)
(500 2.24615e-13 0)
(500 3.18997e-13 0)
(500 1.43554e-13 0)
(500 1.00937e-13 0)
(500 1.1878e-13 0)
(500 -7.04304e-14 0)
(500 -1.81374e-13 0)
(500 -3.7994e-13 0)
(500 4.02581e-13 0)
(500 -4.30015e-12 0)
(500 1.07484e-11 0)
(500 2.02268e-11 0)
(500 -3.77897e-10 0)
(500 2.27811e-09 0)
(500 -8.76578e-09 0)
(500 1.85442e-08 0)
(500 -1.05767e-08 0)
(500 -1.01918e-07 0)
(500 3.97731e-07 0)
(499.999 -3.86765e-07 0)
(499.998 -2.01821e-06 0)
(499.994 1.03684e-05 0)
(499.985 -1.92239e-05 0)
(499.965 -6.48687e-06 0)
(499.924 0.000144097 0)
(499.843 -0.000410368 0)
(499.703 0.000529049 0)
(499.505 -6.27996e-05 0)
(499.331 -0.00051234 0)
(499.278 9.13897e-05 0)
(499.28 0.000156767 0)
(499.306 0.000121887 0)
(499.386 0.000100255 0)
(499.545 0.00028894 0)
(499.791 -0.000742658 0)
(500.116 -0.000566559 0)
(500.497 0.00234315 0)
(500.914 -0.000170421 0)
(501.346 -0.00455084 0)
(501.774 0.0015434 0)
(502.189 0.00742281 0)
(502.59 -0.000884716 0)
(502.967 -0.00847029 0)
(503.314 0.000581982 0)
(503.624 0.00943102 0)
(503.903 0.00132565 0)
(504.143 -0.00856237 0)
(504.344 -0.00316695 0)
(504.505 0.00720974 0)
(504.638 0.00568155 0)
(504.749 -0.00240451 0)
(504.84 -0.00563267 0)
(504.92 -0.00128621 0)
(504.987 0.00390867 0)
(505.049 0.00305967 0)
(505.106 -0.001185 0)
(505.159 -0.00307949 0)
(505.209 -0.000616458 0)
(505.254 0.00259204 0)
(505.291 0.00183895 0)
(505.31 -0.000767594 0)
(505.314 -0.00164967 0)
(505.314 -0.00120352 0)
(505.313 0.000115951 0)
(505.311 0.000794594 0)
(505.306 0.000742727 0)
(505.298 0.000127769 0)
(505.286 -0.00049248 0)
(505.27 -0.000621981 0)
(505.249 -6.78404e-05 0)
(505.226 0.0003567 0)
(505.205 -0.000270878 0)
(505.186 -0.000897034 0)
(505.171 -0.000453858 0)
(505.159 0.000296067 0)
(505.149 0.000608399 0)
(505.142 0.000558119 0)
(505.136 0.000164078 0)
(505.131 -0.000282698 0)
(505.127 -0.000313816 0)
(505.123 -0.000239958 0)
(505.119 -5.24146e-05 0)
(505.115 0.000171444 0)
(505.113 0.000267564 0)
(505.111 0.000359912 0)
(505.11 0.000273861 0)
(505.111 2.47392e-05 0)
(505.111 -0.00011465 0)
(505.111 -0.000262947 0)
(505.111 -0.000314125 0)
(505.112 -0.000129554 0)
(505.114 -1.5977e-05 0)
(505.118 1.96977e-05 0)
(505.124 1.32669e-05 0)
(505.132 -2.15849e-05 0)
(505.141 -9.47515e-05 0)
(505.15 -9.84669e-05 0)
(505.16 4.89133e-05 0)
(505.169 0.000193611 0)
(505.178 0.000186013 0)
(505.186 6.97131e-05 0)
(505.193 -9.2932e-05 0)
(505.198 -0.000120689 0)
(505.201 -3.07101e-05 0)
(505.203 -2.04771e-05 0)
(505.203 -5.11429e-06 0)
(505.203 3.09348e-05 0)
(505.204 1.3244e-05 0)
(505.202 -3.21692e-05 0)
(505.2 -6.88147e-05 0)
(505.196 -0.000128572 0)
(505.19 -0.000129162 0)
(505.184 -0.000113787 0)
(505.176 -6.81485e-05 0)
(505.17 -2.56996e-06 0)
(505.164 6.10027e-05 0)
(505.161 0.000114349 0)
(505.157 0.000120236 0)
(505.154 0.000111927 0)
(505.151 9.34724e-05 0)
(505.149 4.43633e-05 0)
(505.146 -6.49245e-05 0)
(505.144 -0.000149757 0)
(505.142 -0.000180627 0)
(505.139 -0.000208911 0)
(505.138 -0.000157148 0)
(505.135 -5.03539e-05 0)
(505.131 1.27899e-05 0)
(505.126 7.00014e-05 0)
(505.119 0.000109755 0)
(505.115 0.00015111 0)
(505.113 0.000142033 0)
(505.113 0.000165742 0)
(505.114 0.000176108 0)
(505.116 6.41065e-05 0)
(505.119 2.68984e-05 0)
(505.125 -2.46736e-05 0)
(505.133 -0.000100873 0)
(505.143 -0.000136902 0)
(505.152 -0.000128937 0)
(505.161 -0.000100043 0)
(505.169 -0.000101323 0)
(505.174 -9.9227e-05 0)
(505.179 -6.60622e-05 0)
(505.183 -2.12868e-05 0)
(505.187 -1.42769e-05 0)
(505.191 6.85966e-06 0)
(505.195 8.83555e-05 0)
(505.198 0.00019096 0)
(505.199 0.000192168 0)
(505.2 0.000170817 0)
(505.2 0.000141081 0)
(505.2 2.42648e-05 0)
(505.2 -0.000130351 0)
(505.199 -0.000211961 0)
(505.196 -0.000257415 0)
(505.192 -0.000280934 0)
(505.186 -0.000156299 0)
(505.179 -7.6688e-05 0)
(505.172 -6.19955e-06 0)
(505.166 7.40177e-05 0)
(505.162 0.000144964 0)
(505.159 0.000158521 0)
(505.155 0.000135216 0)
(505.152 0.000110207 0)
(505.15 6.06828e-05 0)
(505.148 3.21692e-06 0)
(505.146 -4.28275e-06 0)
(505.144 1.84245e-05 0)
(505.143 3.15193e-05 0)
(505.141 5.21233e-05 0)
(505.141 3.83618e-05 0)
(505.14 -7.36449e-05 0)
(505.138 -0.000173481 0)
(505.135 -0.000228339 0)
(505.13 -0.000257509 0)
(505.124 -0.0002556 0)
(505.117 -4.0014e-05 0)
(505.111 0.000267041 0)
(505.109 0.000437663 0)
(505.108 0.000622994 0)
(505.11 0.000593032 0)
(505.113 1.70623e-05 0)
(505.117 -0.000189654 0)
(505.123 -0.000334575 0)
(505.132 -0.000601988 0)
(505.143 -0.000858887 0)
(505.153 -0.000265671 0)
(505.163 0.000421292 0)
(505.172 0.000483528 0)
(505.177 0.000541112 0)
(505.181 0.000525465 0)
(505.185 0.000182338 0)
(505.188 -0.000173975 0)
(505.19 -0.000311793 0)
(505.193 -0.000547488 0)
(505.196 -0.000509742 0)
(505.199 -5.38588e-05 0)
(505.202 8.15292e-05 0)
(505.204 0.000148106 0)
(505.204 0.000243753 0)
(505.205 0.000235223 0)
(505.205 -1.30471e-05 0)
(505.203 -0.000199115 0)
(505.2 -0.000307596 0)
(505.196 -0.000385004 0)
(505.189 -0.000186625 0)
(505.182 6.99267e-05 0)
(505.174 0.000307365 0)
(505.167 0.000607323 0)
(505.162 0.000897653 0)
(505.158 0.00081289 0)
(505.155 0.000402165 0)
(505.152 7.61308e-05 0)
(505.149 -0.000316849 0)
(505.148 -0.000721998 0)
(505.145 -0.000918899 0)
(505.144 -0.000687006 0)
(505.143 -0.000435787 0)
(505.141 -9.29575e-05 0)
(505.14 0.00045822 0)
(505.139 0.000728133 0)
(505.137 0.000555342 0)
(505.133 0.000315168 0)
(505.128 6.12553e-06 0)
(505.122 -0.000217432 0)
(505.114 -0.000238664 0)
(505.106 -0.000145966 0)
(505.1 0.000124737 0)
(505.099 0.000353582 0)
(505.099 0.000472084 0)
(505.101 0.000313095 0)
(505.103 0.000115072 0)
(505.109 -0.000178647 0)
(505.117 -0.000491273 0)
(505.129 -0.000679516 0)
(505.142 -0.000574232 0)
(505.156 -5.72695e-05 0)
(505.168 0.000332757 0)
(505.177 0.000514999 0)
(505.182 0.000685224 0)
(505.186 0.000619677 0)
(505.189 0.000353505 0)
(505.192 4.49123e-05 0)
(505.195 -0.000530236 0)
(505.198 -0.00103758 0)
(505.202 -0.00109984 0)
(505.207 -0.000721428 0)
(505.211 -0.000159366 0)
(505.213 0.000221393 0)
(505.213 0.000660412 0)
(505.214 0.00102208 0)
(505.214 0.00103026 0)
(505.213 0.00062277 0)
(505.211 0.000169814 0)
(505.206 -0.000259321 0)
(505.2 -0.000725501 0)
(505.192 -0.000879705 0)
(505.184 -0.000777751 0)
(505.176 -0.000532997 0)
(505.168 -0.000120106 0)
(505.162 0.000256504 0)
(505.158 0.000634554 0)
(505.155 0.00065723 0)
(505.151 0.000579856 0)
(505.148 0.000379883 0)
(505.144 6.94099e-05 0)
(505.141 -0.000254323 0)
(505.136 -0.00036092 0)
(500 1.57967e-14 0)
(500 6.29701e-15 0)
(500 4.85958e-14 0)
(500 2.15945e-14 0)
(500 2.04749e-13 0)
(500 3.30171e-13 0)
(500 2.27346e-13 0)
(500 1.754e-13 0)
(500 2.64237e-13 0)
(500 3.18872e-13 0)
(500 4.7827e-13 0)
(500 5.03526e-13 0)
(500 4.06927e-13 0)
(500 4.24777e-13 0)
(500 3.82466e-13 0)
(500 2.88626e-13 0)
(500 8.48475e-14 0)
(500 -1.70268e-13 0)
(500 -2.08715e-13 0)
(500 -3.72466e-13 0)
(500 -3.6957e-13 0)
(500 -2.99189e-13 0)
(500 -1.18591e-13 0)
(500 -2.39863e-13 0)
(500 -3.33397e-13 0)
(500 -3.56808e-13 0)
(500 -2.38803e-13 0)
(500 -2.68996e-13 0)
(500 -1.13917e-13 0)
(500 -1.68498e-13 0)
(500 -2.74239e-14 0)
(500 3.57216e-13 0)
(500 3.47738e-13 0)
(500 1.8617e-13 0)
(500 2.73281e-13 0)
(500 2.20042e-13 0)
(500 3.49181e-14 0)
(500 -6.71443e-14 0)
(500 -7.66242e-13 0)
(500 4.96765e-13 0)
(500 -6.56024e-12 0)
(500 1.76348e-11 0)
(500 1.4398e-11 0)
(500 -4.99529e-10 0)
(500 3.27841e-09 0)
(500 -1.2716e-08 0)
(500 3.01371e-08 0)
(500 -2.69691e-08 0)
(500 -1.15594e-07 0)
(500 5.34173e-07 0)
(499.999 -5.86013e-07 0)
(499.998 -2.61621e-06 0)
(499.994 1.40934e-05 0)
(499.985 -2.56596e-05 0)
(499.965 -1.16857e-05 0)
(499.924 0.000199465 0)
(499.843 -0.000535236 0)
(499.703 0.000658199 0)
(499.505 1.96988e-05 0)
(499.331 -0.000807032 0)
(499.278 8.6504e-05 0)
(499.28 0.000198411 0)
(499.306 0.000183242 0)
(499.386 0.000264205 0)
(499.545 0.000214158 0)
(499.791 -0.00115214 0)
(500.116 0.000216523 0)
(500.497 0.00265735 0)
(500.915 -0.00228414 0)
(501.346 -0.00474357 0)
(501.773 0.00485244 0)
(502.189 0.0070321 0)
(502.591 -0.00487424 0)
(502.967 -0.00885593 0)
(503.312 0.00497315 0)
(503.623 0.00951144 0)
(503.904 -0.00261953 0)
(504.143 -0.0102438 0)
(504.343 -0.00021651 0)
(504.504 0.00897358 0)
(504.639 0.00427701 0)
(504.75 -0.00430095 0)
(504.841 -0.00606274 0)
(504.919 0.000215645 0)
(504.987 0.00463811 0)
(505.049 0.00234431 0)
(505.107 -0.00213222 0)
(505.159 -0.00335984 0)
(505.209 0.000365277 0)
(505.254 0.00310287 0)
(505.291 0.00170693 0)
(505.31 -0.00103857 0)
(505.315 -0.00188657 0)
(505.315 -0.00130743 0)
(505.313 0.000322573 0)
(505.311 0.00104857 0)
(505.306 0.000952811 0)
(505.299 0.000143557 0)
(505.287 -0.000647569 0)
(505.27 -0.000645452 0)
(505.249 9.56549e-05 0)
(505.226 0.000441374 0)
(505.205 -0.000495552 0)
(505.186 -0.00109945 0)
(505.171 -0.000441159 0)
(505.159 0.000390887 0)
(505.15 0.000764048 0)
(505.142 0.000621703 0)
(505.136 0.000231305 0)
(505.131 -0.000228993 0)
(505.126 -0.000406702 0)
(505.122 -0.000338849 0)
(505.119 -0.000156178 0)
(505.116 8.82189e-05 0)
(505.113 0.000252413 0)
(505.111 0.000392529 0)
(505.11 0.000394471 0)
(505.11 0.000130553 0)
(505.111 -8.01741e-05 0)
(505.111 -0.000264403 0)
(505.111 -0.000359065 0)
(505.112 -0.000148099 0)
(505.114 2.37977e-05 0)
(505.118 6.10123e-05 0)
(505.124 4.88014e-05 0)
(505.132 -1.77123e-05 0)
(505.141 -0.000108377 0)
(505.15 -0.000124394 0)
(505.16 -3.41352e-06 0)
(505.169 0.000159942 0)
(505.178 0.000228927 0)
(505.185 0.000160078 0)
(505.193 -1.60499e-05 0)
(505.198 -0.000153446 0)
(505.202 -0.000114134 0)
(505.203 -6.84523e-05 0)
(505.203 -4.60928e-05 0)
(505.204 -3.35843e-06 0)
(505.203 1.5424e-05 0)
(505.202 -1.39878e-05 0)
(505.2 -4.81873e-05 0)
(505.196 -0.000101904 0)
(505.19 -0.000125193 0)
(505.184 -0.0001189 0)
(505.177 -7.71038e-05 0)
(505.17 -1.11323e-05 0)
(505.164 5.72368e-05 0)
(505.161 9.73673e-05 0)
(505.157 0.000106276 0)
(505.154 9.69938e-05 0)
(505.151 6.56968e-05 0)
(505.149 1.32137e-05 0)
(505.146 -7.71481e-05 0)
(505.144 -0.000150268 0)
(505.141 -0.000184967 0)
(505.139 -0.000215542 0)
(505.138 -0.000165474 0)
(505.135 -6.16228e-05 0)
(505.131 5.96487e-06 0)
(505.126 6.41011e-05 0)
(505.12 0.000144998 0)
(505.115 0.000205227 0)
(505.113 0.000162967 0)
(505.113 0.000169821 0)
(505.114 0.000176876 0)
(505.116 9.72104e-05 0)
(505.119 5.71454e-05 0)
(505.125 6.68198e-06 0)
(505.133 -8.94151e-05 0)
(505.143 -0.000100797 0)
(505.153 -7.69988e-05 0)
(505.161 -0.000130776 0)
(505.169 -0.000161724 0)
(505.174 -0.000170758 0)
(505.179 -0.000146133 0)
(505.183 -7.26438e-05 0)
(505.187 -4.47057e-05 0)
(505.191 -1.40528e-05 0)
(505.195 6.96535e-05 0)
(505.198 0.000240037 0)
(505.2 0.000252753 0)
(505.2 0.000245214 0)
(505.2 0.000209513 0)
(505.2 0.000125971 0)
(505.2 -8.01133e-05 0)
(505.199 -0.000255329 0)
(505.196 -0.000307747 0)
(505.192 -0.000326623 0)
(505.186 -0.00023178 0)
(505.179 -0.000117825 0)
(505.173 -2.06592e-05 0)
(505.166 0.000102666 0)
(505.162 0.000177602 0)
(505.158 0.000146431 0)
(505.155 0.0001259 0)
(505.152 0.000107739 0)
(505.15 5.2965e-05 0)
(505.148 -1.91584e-05 0)
(505.146 -4.25709e-05 0)
(505.144 -1.30494e-05 0)
(505.143 9.62026e-06 0)
(505.142 4.90817e-05 0)
(505.141 6.72196e-05 0)
(505.14 -1.62763e-07 0)
(505.138 -0.000125139 0)
(505.134 -0.000244182 0)
(505.13 -0.000318373 0)
(505.124 -0.000294326 0)
(505.117 -0.000163149 0)
(505.111 0.000156273 0)
(505.109 0.000461381 0)
(505.109 0.000638856 0)
(505.11 0.000753079 0)
(505.112 0.000375353 0)
(505.116 -0.000116599 0)
(505.122 -0.000340922 0)
(505.132 -0.000674839 0)
(505.143 -0.000974806 0)
(505.154 -0.000840621 0)
(505.164 0.000145876 0)
(505.172 0.000623513 0)
(505.177 0.000682868 0)
(505.181 0.000697993 0)
(505.184 0.000483797 0)
(505.187 -2.75876e-05 0)
(505.19 -0.000259649 0)
(505.193 -0.000519764 0)
(505.196 -0.00070151 0)
(505.2 -0.000401892 0)
(505.203 2.7074e-05 0)
(505.204 0.000127875 0)
(505.205 0.00028231 0)
(505.205 0.000358482 0)
(505.205 0.00017263 0)
(505.203 -0.000100509 0)
(505.2 -0.000300075 0)
(505.195 -0.000439272 0)
(505.189 -0.000340617 0)
(505.182 -0.000147902 0)
(505.175 0.000132728 0)
(505.168 0.000514854 0)
(505.162 0.000940168 0)
(505.158 0.000886308 0)
(505.154 0.000539581 0)
(505.151 9.48057e-05 0)
(505.149 -0.000384226 0)
(505.147 -0.00081125 0)
(505.145 -0.00103468 0)
(505.144 -0.00101922 0)
(505.143 -0.000765579 0)
(505.142 -9.856e-05 0)
(505.141 0.00060007 0)
(505.139 0.000831393 0)
(505.137 0.000771871 0)
(505.133 0.000364139 0)
(505.128 -3.20641e-05 0)
(505.122 -0.00020562 0)
(505.114 -0.00038395 0)
(505.106 -0.000539912 0)
(505.1 -1.66305e-05 0)
(505.099 0.000424563 0)
(505.1 0.000548027 0)
(505.1 0.000503931 0)
(505.103 0.000214802 0)
(505.108 -0.000184386 0)
(505.117 -0.000547462 0)
(505.128 -0.00069123 0)
(505.142 -0.000525834 0)
(505.156 -0.000273475 0)
(505.168 9.69295e-05 0)
(505.177 0.000564704 0)
(505.182 0.000918706 0)
(505.186 0.000940794 0)
(505.189 0.000621036 0)
(505.192 -6.06746e-05 0)
(505.194 -0.000835062 0)
(505.198 -0.00116646 0)
(505.202 -0.00115946 0)
(505.207 -0.000934236 0)
(505.212 -0.000338054 0)
(505.214 0.000241952 0)
(505.214 0.000681955 0)
(505.215 0.00101032 0)
(505.214 0.00112655 0)
(505.213 0.00102861 0)
(505.21 0.000593351 0)
(505.205 -0.000113291 0)
(505.199 -0.000796209 0)
(505.192 -0.00104647 0)
(505.184 -0.0010869 0)
(505.176 -0.00089674 0)
(505.169 -0.000450807 0)
(505.163 0.000180685 0)
(505.159 0.000702892 0)
(505.155 0.000776566 0)
(505.151 0.000728556 0)
(505.147 0.000537753 0)
(505.144 0.000109033 0)
(505.141 -0.000245913 0)
(505.136 -0.00035703 0)
(500 1.9854e-15 0)
(500 -9.27559e-15 0)
(500 -1.4879e-14 0)
(500 2.20877e-13 0)
(500 3.98377e-13 0)
(500 2.67783e-13 0)
(500 1.07903e-14 0)
(500 1.29756e-13 0)
(500 2.27961e-13 0)
(500 4.62257e-13 0)
(500 5.73866e-13 0)
(500 5.24294e-13 0)
(500 3.27586e-13 0)
(500 4.33776e-13 0)
(500 2.87712e-13 0)
(500 2.0233e-13 0)
(500 5.35134e-14 0)
(500 -7.58934e-14 0)
(500 -2.61738e-13 0)
(500 -3.13293e-13 0)
(500 -3.75581e-13 0)
(500 -2.98816e-13 0)
(500 -1.47993e-13 0)
(500 -3.39792e-13 0)
(500 -2.74417e-13 0)
(500 -2.87325e-13 0)
(500 -2.73304e-13 0)
(500 -2.9148e-13 0)
(500 8.19913e-15 0)
(500 -1.84724e-13 0)
(500 8.87676e-15 0)
(500 3.90021e-13 0)
(500 4.45932e-13 0)
(500 4.28005e-13 0)
(500 3.86466e-13 0)
(500 1.40497e-13 0)
(500 4.12996e-14 0)
(500 -1.06496e-13 0)
(500 -8.90873e-13 0)
(500 8.35987e-13 0)
(500 -8.53861e-12 0)
(500 2.39688e-11 0)
(500 5.34634e-12 0)
(500 -5.77959e-10 0)
(500 3.94949e-09 0)
(500 -1.57233e-08 0)
(500 3.99726e-08 0)
(500 -4.56239e-08 0)
(500 -1.06262e-07 0)
(500 5.66448e-07 0)
(499.999 -6.32122e-07 0)
(499.998 -3.0278e-06 0)
(499.994 1.5826e-05 0)
(499.985 -2.79858e-05 0)
(499.965 -1.79371e-05 0)
(499.924 0.000231097 0)
(499.843 -0.000585692 0)
(499.703 0.000645211 0)
(499.505 0.000212014 0)
(499.331 -0.00102061 0)
(499.278 4.53175e-05 0)
(499.28 0.00020851 0)
(499.306 0.000226136 0)
(499.386 0.000395498 0)
(499.545 4.54166e-05 0)
(499.791 -0.00135543 0)
(500.115 0.00116747 0)
(500.497 0.00224837 0)
(500.915 -0.00447998 0)
(501.345 -0.00338573 0)
(501.772 0.00774849 0)
(502.19 0.00492576 0)
(502.592 -0.00865133 0)
(502.967 -0.0064974 0)
(503.31 0.00913302 0)
(503.624 0.00751115 0)
(503.905 -0.00693615 0)
(504.143 -0.00983826 0)
(504.342 0.00383667 0)
(504.503 0.00922948 0)
(504.64 0.00188867 0)
(504.75 -0.00605923 0)
(504.841 -0.00507373 0)
(504.918 0.00241914 0)
(504.986 0.00451454 0)
(505.05 0.000915809 0)
(505.107 -0.00322879 0)
(505.16 -0.0028698 0)
(505.209 0.0017107 0)
(505.254 0.00314934 0)
(505.291 0.0012625 0)
(505.31 -0.00150831 0)
(505.315 -0.00186763 0)
(505.315 -0.00106723 0)
(505.313 0.000631863 0)
(505.311 0.00114 0)
(505.307 0.000911012 0)
(505.299 -2.90541e-05 0)
(505.287 -0.000636018 0)
(505.27 -0.00042872 0)
(505.249 0.000357873 0)
(505.226 0.000403687 0)
(505.205 -0.000761978 0)
(505.186 -0.00111719 0)
(505.171 -0.000178967 0)
(505.159 0.000627322 0)
(505.15 0.000736039 0)
(505.143 0.000577209 0)
(505.136 0.000109172 0)
(505.13 -0.000227201 0)
(505.126 -0.000441295 0)
(505.122 -0.000378238 0)
(505.119 -0.000208297 0)
(505.116 5.82135e-05 0)
(505.114 0.000308786 0)
(505.111 0.000456437 0)
(505.11 0.000445834 0)
(505.11 0.000188261 0)
(505.11 -0.000130966 0)
(505.111 -0.000290508 0)
(505.111 -0.000414934 0)
(505.112 -0.000260207 0)
(505.114 4.98622e-06 0)
(505.118 0.000116191 0)
(505.124 0.000116559 0)
(505.132 3.63527e-05 0)
(505.141 -9.22677e-05 0)
(505.15 -0.000136126 0)
(505.16 -4.81174e-05 0)
(505.169 6.96424e-05 0)
(505.178 0.000142906 0)
(505.185 0.000140944 0)
(505.192 0.000116938 0)
(505.198 4.78456e-05 0)
(505.202 -7.50725e-05 0)
(505.203 -8.31906e-05 0)
(505.204 -7.95697e-05 0)
(505.204 -9.28439e-05 0)
(505.203 -0.000105919 0)
(505.202 -0.000124617 0)
(505.2 -0.000129121 0)
(505.196 -0.00011772 0)
(505.19 -6.68878e-05 0)
(505.184 -4.65048e-05 0)
(505.177 1.72446e-06 0)
(505.17 6.90196e-05 0)
(505.164 7.4061e-05 0)
(505.161 2.44234e-05 0)
(505.157 1.53981e-05 0)
(505.154 1.72789e-05 0)
(505.151 1.77246e-06 0)
(505.148 -3.43635e-05 0)
(505.146 -6.61041e-05 0)
(505.143 -9.20434e-05 0)
(505.141 -0.000102864 0)
(505.14 -0.000116777 0)
(505.138 -0.000118461 0)
(505.135 -8.24016e-05 0)
(505.131 -1.19426e-05 0)
(505.126 3.21035e-05 0)
(505.12 0.000111896 0)
(505.115 0.000187413 0)
(505.113 0.000151751 0)
(505.113 0.000172709 0)
(505.114 0.000181873 0)
(505.116 0.000109134 0)
(505.119 4.94841e-05 0)
(505.125 2.07587e-05 0)
(505.133 -5.54317e-05 0)
(505.143 -7.16202e-05 0)
(505.153 2.39647e-05 0)
(505.161 -6.74512e-05 0)
(505.169 -0.000162648 0)
(505.174 -0.000186639 0)
(505.179 -0.000183559 0)
(505.183 -0.000119959 0)
(505.187 -8.25741e-05 0)
(505.191 -8.43813e-05 0)
(505.195 -5.4001e-05 0)
(505.198 0.000241467 0)
(505.2 0.000297747 0)
(505.2 0.000290864 0)
(505.2 0.000241674 0)
(505.2 0.000188152 0)
(505.2 1.71649e-05 0)
(505.199 -0.000276537 0)
(505.196 -0.000395274 0)
(505.192 -0.000397084 0)
(505.186 -0.000296205 0)
(505.18 -0.000115822 0)
(505.173 4.07252e-05 0)
(505.167 0.00020397 0)
(505.162 0.000304353 0)
(505.158 0.000207965 0)
(505.155 0.00010574 0)
(505.152 6.78118e-05 0)
(505.15 -6.83064e-06 0)
(505.148 -7.91521e-05 0)
(505.146 -7.60197e-05 0)
(505.144 -3.35337e-05 0)
(505.143 -7.83622e-06 0)
(505.142 3.68751e-05 0)
(505.141 8.85038e-05 0)
(505.14 1.79408e-05 0)
(505.137 -0.000122499 0)
(505.134 -0.000248846 0)
(505.13 -0.000343288 0)
(505.124 -0.000327541 0)
(505.118 -0.000218387 0)
(505.112 -5.491e-05 0)
(505.109 0.000397829 0)
(505.109 0.000635974 0)
(505.11 0.000790777 0)
(505.112 0.00065721 0)
(505.115 0.000137089 0)
(505.122 -0.000249834 0)
(505.131 -0.000600674 0)
(505.142 -0.000896898 0)
(505.154 -0.000889319 0)
(505.165 -0.000530213 0)
(505.172 0.000290547 0)
(505.178 0.00065761 0)
(505.181 0.000713121 0)
(505.184 0.000653158 0)
(505.187 0.00025048 0)
(505.19 -0.00011916 0)
(505.193 -0.000347854 0)
(505.196 -0.000627922 0)
(505.2 -0.00069135 0)
(505.203 -0.0001789 0)
(505.205 6.67222e-05 0)
(505.205 0.000200583 0)
(505.205 0.00030014 0)
(505.204 0.000250323 0)
(505.203 1.67814e-05 0)
(505.2 -0.000206514 0)
(505.195 -0.00030281 0)
(505.19 -0.000266462 0)
(505.183 -0.000107686 0)
(505.175 0.000190644 0)
(505.168 0.000638464 0)
(505.162 0.00091329 0)
(505.157 0.000858568 0)
(505.154 0.000533438 0)
(505.151 -1.43421e-05 0)
(505.148 -0.000562953 0)
(505.146 -0.00086253 0)
(505.145 -0.000976569 0)
(505.144 -0.000958593 0)
(505.144 -0.000500227 0)
(505.143 0.000221445 0)
(505.142 0.000561562 0)
(505.14 0.000746511 0)
(505.136 0.000695402 0)
(505.132 0.00032557 0)
(505.128 8.94832e-05 0)
(505.121 -0.000108378 0)
(505.114 -0.000394858 0)
(505.106 -0.000409474 0)
(505.101 0.000346007 0)
(505.1 0.000500472 0)
(505.1 0.000484562 0)
(505.1 0.000358246 0)
(505.103 -1.18623e-05 0)
(505.108 -0.00038336 0)
(505.116 -0.000573116 0)
(505.128 -0.000492986 0)
(505.142 -0.000364601 0)
(505.157 -0.000174211 0)
(505.169 0.000214801 0)
(505.177 0.000687322 0)
(505.183 0.000862845 0)
(505.186 0.000755891 0)
(505.188 0.000208202 0)
(505.191 -0.000564155 0)
(505.194 -0.000894145 0)
(505.198 -0.00100418 0)
(505.202 -0.000940278 0)
(505.208 -0.000577378 0)
(505.212 -3.3107e-05 0)
(505.214 0.000463658 0)
(505.215 0.000658155 0)
(505.215 0.000818734 0)
(505.214 0.000952779 0)
(505.212 0.000784221 0)
(505.209 9.43754e-05 0)
(505.204 -0.000460821 0)
(505.198 -0.000710456 0)
(505.191 -0.000946187 0)
(505.184 -0.00106077 0)
(505.177 -0.000723537 0)
(505.17 8.98164e-06 0)
(505.164 0.000628776 0)
(505.159 0.000760207 0)
(505.154 0.000718274 0)
(505.15 0.000533128 0)
(505.147 0.000215407 0)
(505.143 -0.000128245 0)
(505.14 -0.000208109 0)
(505.136 -0.000324821 0)
(500 6.88548e-14 0)
(500 -1.70127e-14 0)
(500 -4.23106e-14 0)
(500 3.8193e-13 0)
(500 3.50412e-13 0)
(500 8.83429e-14 0)
(500 1.10688e-13 0)
(500 1.22714e-13 0)
(500 1.52929e-13 0)
(500 2.6821e-13 0)
(500 3.03324e-13 0)
(500 3.05127e-13 0)
(500 3.46483e-13 0)
(500 2.5297e-13 0)
(500 1.6328e-13 0)
(500 2.09699e-14 0)
(500 -6.5987e-14 0)
(500 -1.47572e-13 0)
(500 -3.40419e-13 0)
(500 -2.71324e-13 0)
(500 -2.53729e-13 0)
(500 -5.94541e-14 0)
(500 -1.10603e-13 0)
(500 -3.82834e-13 0)
(500 -3.5663e-13 0)
(500 -4.13029e-13 0)
(500 -3.44001e-13 0)
(500 -4.41873e-13 0)
(500 -1.6591e-13 0)
(500 -1.69361e-13 0)
(500 1.41812e-14 0)
(500 1.66626e-13 0)
(500 4.03917e-13 0)
(500 4.59035e-13 0)
(500 1.9389e-13 0)
(500 1.48392e-14 0)
(500 -1.71676e-13 0)
(500 -1.8439e-13 0)
(500 -1.04177e-12 0)
(500 1.21102e-12 0)
(500 -1.03316e-11 0)
(500 2.98476e-11 0)
(500 -6.87428e-12 0)
(500 -6.07003e-10 0)
(500 4.25448e-09 0)