/*--------------------------------*- C++ -*----------------------------------*\
| =========                 |                                                 |
| \\      /  F ield         | OpenFOAM: The Open Source CFD Toolbox           |
|  \\    /   O peration     | Version:  2306                                  |
|   \\  /    A nd           | Website:  www.openfoam.com                      |
|    \\/     M anipulation  |                                                 |
\*---------------------------------------------------------------------------*/
FoamFile
{
    version     2.0;
    format      ascii;
    arch        "LSB;label=32;scalar=64";
    class       volVectorField;
    location    "0.02";
    object      U;
}
// * * * * * * * * * * * * * * * * * * * * * * * * * * * * * * * * * * * * * //

dimensions      [0 1 -1 0 0 0 0];

internalField   nonuniform List<vector> 
6000
(
(-2011.47 0.00181144 0)
(-460.432 0.00116728 0)
(113.346 0.000314704 0)
(106.821 0.000384515 0)
(106.817 0.000503574 0)
(106.714 0.000138999 0)
(106.818 -7.30464e-05 0)
(106.916 0.000588921 0)
(107.027 0.000626757 0)
(107.137 -2.63055e-05 0)
(107.248 -0.00067979 0)
(107.359 -0.000347041 0)
(107.471 0.000441814 0)
(107.584 -0.000107927 0)
(107.697 -0.00122149 0)
(107.809 -0.00210569 0)
(107.921 -0.00241519 0)
(108.032 -0.00094207 0)
(108.144 -0.000862878 0)
(108.258 -0.00257454 0)
(108.373 -0.00409391 0)
(108.486 -0.00349011 0)
(108.598 -0.00130982 0)
(108.708 0.00304392 0)
(108.818 0.00563284 0)
(108.93 -0.001582 0)
(109.045 -0.00339503 0)
(109.16 -0.00090754 0)
(109.279 0.00195333 0)
(109.401 0.00391219 0)
(109.524 0.00516353 0)
(109.648 0.00637405 0)
(109.774 0.00742213 0)
(109.905 0.00809151 0)
(110.048 0.00824287 0)
(110.207 0.00765349 0)
(110.386 0.00533248 0)
(110.582 0.00223082 0)
(110.781 0.000464633 0)
(110.954 0.000509345 0)
(111.066 0.000109001 0)
(111.102 9.67222e-05 0)
(111.116 0.000379187 0)
(111.133 0.000409074 0)
(111.206 0.000556601 0)
(111.342 0.000392431 0)
(111.4 0.000385584 0)
(111.618 0.000465676 0)
(111.74 0.00077132 0)
(111.874 0.00059278 0)
(112.014 -4.65679e-05 0)
(112.156 -0.000426139 0)
(112.306 -0.000407248 0)
(112.453 -0.000388741 0)
(112.632 -0.000329594 0)
(112.755 -0.000264652 0)
(112.908 -0.000239933 0)
(113.067 -0.000211843 0)
(113.228 -0.000173388 0)
(113.391 -0.000140488 0)
(113.556 -0.00012528 0)
(113.725 -0.000125678 0)
(113.896 -0.000140261 0)
(114.071 -0.000156327 0)
(114.252 -0.000164176 0)
(114.435 -0.000167851 0)
(114.619 -0.00017227 0)
(114.806 -0.000180909 0)
(114.997 -0.00019474 0)
(115.192 -0.000214263 0)
(115.391 -0.000234855 0)
(115.593 -0.000255441 0)
(115.799 -0.000268292 0)
(116.009 -0.000269169 0)
(116.223 -0.000262304 0)
(116.442 -0.000260028 0)
(116.665 -0.000270004 0)
(116.893 -0.00029739 0)
(117.126 -0.000333209 0)
(117.363 -0.000355776 0)
(117.606 -0.000350613 0)
(117.854 -0.000318287 0)
(118.108 -0.000263742 0)
(118.368 -0.000226711 0)
(118.633 -0.000214568 0)
(118.905 -0.000236649 0)
(119.181 -0.000297748 0)
(119.463 -0.000380139 0)
(119.752 -0.000411659 0)
(120.047 -0.000400729 0)
(120.349 -0.000356798 0)
(120.659 -0.000274358 0)
(120.977 -0.000180527 0)
(121.304 -0.000106901 0)
(121.639 -6.32129e-05 0)
(121.983 -3.87391e-05 0)
(122.335 -2.66352e-05 0)
(122.695 -3.25311e-05 0)
(123.064 -4.50673e-05 0)
(123.443 -4.14012e-05 0)
(123.832 -2.7961e-06 0)
(124.231 5.50716e-05 0)
(124.642 8.75548e-05 0)
(125.063 8.16966e-05 0)
(125.496 3.43665e-05 0)
(125.941 -4.707e-05 0)
(126.399 -0.000142734 0)
(126.869 -0.000205676 0)
(127.354 -0.000212337 0)
(127.852 -0.000200057 0)
(128.366 -0.000170098 0)
(128.895 -0.000118654 0)
(129.44 -6.12367e-05 0)
(130 -6.91912e-06 0)
(130.576 2.29572e-05 0)
(131.167 3.3786e-05 0)
(131.772 1.1621e-05 0)
(132.391 -3.52614e-05 0)
(133.026 -7.50121e-05 0)
(133.678 -7.75029e-05 0)
(134.35 -4.50246e-05 0)
(135.045 -2.24567e-05 0)
(135.765 -1.18414e-05 0)
(136.513 -3.04401e-06 0)
(137.288 9.92515e-06 0)
(138.091 1.89249e-05 0)
(138.921 2.22542e-05 0)
(139.775 2.13926e-05 0)
(140.654 1.73896e-05 0)
(141.555 1.22421e-05 0)
(142.478 8.35655e-06 0)
(143.427 1.2431e-06 0)
(144.408 -1.29964e-06 0)
(145.421 -8.28641e-07 0)
(146.442 -6.59062e-07 0)
(147.444 -1.27225e-06 0)
(148.525 -2.56121e-06 0)
(150.022 -1.70709e-06 0)
(152.028 -6.12338e-07 0)
(152.859 2.28003e-07 0)
(152.539 3.07922e-07 0)
(149.124 2.15924e-07 0)
(130.259 1.84915e-07 0)
(71.8222 1.84313e-08 0)
(11.528 -1.20527e-08 0)
(0.252149 -4.71987e-10 0)
(0.000462422 -1.20347e-12 0)
(4.49482e-08 3.37504e-15 0)
(2.06269e-12 -2.58697e-14 0)
(8.43515e-13 -9.44056e-14 0)
(5.81349e-13 -9.12602e-14 0)
(6.09577e-13 -6.6647e-14 0)
(5.19914e-13 -8.04238e-14 0)
(1.01712e-13 -1.30931e-13 0)
(1.42338e-13 -5.5841e-14 0)
(2.16439e-13 -9.83315e-14 0)
(-1.57968e-13 -1.04448e-13 0)
(-2.92615e-13 -6.06761e-14 0)
(-5.43016e-13 -2.79219e-14 0)
(-7.84724e-13 9.0407e-14 0)
(-6.37037e-13 7.46515e-14 0)
(-5.02608e-13 6.38153e-14 0)
(-4.55978e-13 5.99792e-14 0)
(-5.94856e-13 7.86913e-14 0)
(-4.96527e-13 1.17188e-13 0)
(-3.30438e-13 9.64908e-14 0)
(-2.20304e-13 1.24229e-13 0)
(-2.13852e-13 1.17544e-13 0)
(-2.02917e-13 8.53501e-14 0)
(-2.07346e-13 1.16233e-13 0)
(-6.99169e-14 1.00646e-13 0)
(2.19182e-13 1.21036e-13 0)
(4.9681e-13 1.87718e-13 0)
(6.67434e-13 1.03085e-14 0)
(5.36347e-13 -5.23228e-14 0)
(5.42669e-13 -2.28788e-14 0)
(5.62251e-13 -1.0752e-13 0)
(1.72751e-13 -2.04013e-13 0)
(1.0421e-13 -2.54457e-13 0)
(1.41017e-13 -2.99609e-13 0)
(1.44596e-14 -2.77966e-13 0)
(6.87435e-14 -1.31194e-13 0)
(2.0142e-13 -1.50309e-13 0)
(9.1102e-14 -8.42778e-14 0)
(-4.48354e-14 -5.78537e-14 0)
(1.60384e-13 -2.40139e-14 0)
(8.20434e-14 -8.44157e-14 0)
(2.69101e-14 -1.15707e-13 0)
(-9.67744e-15 -1.1703e-13 0)
(-2.97039e-13 -6.80034e-14 0)
(-1.53603e-13 3.48031e-14 0)
(-8.44493e-14 -2.34552e-14 0)
(-3.36052e-13 2.39449e-15 0)
(-3.64582e-13 -2.0014e-14 0)
(-3.18923e-13 3.6784e-14 0)
(-4.75347e-13 1.12969e-14 0)
(-3.99655e-13 4.67754e-14 0)
(3.99733e-14 2.52083e-14 0)
(-1.83189e-14 6.74001e-14 0)
(-1.09001e-13 1.30169e-13 0)
(-6.14355e-14 1.49442e-13 0)
(3.91237e-14 1.3067e-13 0)
(2.76717e-13 1.25074e-13 0)
(5.71683e-13 5.13157e-14 0)
(7.3591e-13 8.52311e-14 0)
(9.52948e-13 2.70484e-15 0)
(7.93714e-13 -8.72694e-14 0)
(4.63414e-13 -8.83535e-14 0)
(4.83844e-13 -1.25628e-13 0)
(6.38185e-13 -1.66375e-13 0)
(2.81448e-13 -8.69587e-14 0)
(1.44752e-13 3.0837e-14 0)
(2.04515e-13 1.86871e-14 0)
(1.38049e-13 2.74041e-14 0)
(3.75939e-13 1.02184e-13 0)
(3.29642e-13 -1.72208e-14 0)
(1.64787e-13 -7.01912e-15 0)
(1.80787e-13 -8.4699e-14 0)
(-2.39839e-15 -1.64588e-13 0)
(-2.28074e-13 -9.72885e-14 0)
(-3.74914e-14 -3.93098e-14 0)
(9.91525e-14 -2.23452e-13 0)
(-1.2999e-13 -2.72186e-13 0)
(-2.71105e-13 -1.14277e-13 0)
(-4.97266e-13 -9.4871e-14 0)
(-3.88377e-13 6.93057e-15 0)
(-9.27237e-14 -1.26453e-15 0)
(-2.71266e-14 -4.91484e-15 0)
(1.30191e-13 9.7732e-14 0)
(1.97713e-13 4.04342e-14 0)
(1.721e-13 1.28835e-13 0)
(4.66318e-13 1.08113e-13 0)
(6.80028e-13 8.01142e-14 0)
(5.60802e-13 1.50075e-13 0)
(5.12715e-13 2.4647e-13 0)
(6.86613e-13 1.64139e-13 0)
(8.63097e-13 2.19509e-13 0)
(1.01795e-12 1.73458e-13 0)
(9.08792e-13 1.2275e-13 0)
(9.0063e-13 7.01704e-14 0)
(9.22062e-13 6.68048e-14 0)
(9.24166e-13 1.36712e-13 0)
(8.54936e-13 1.31767e-13 0)
(6.64052e-13 8.2439e-14 0)
(5.09286e-13 -1.01096e-13 0)
(1.4865e-13 -7.33506e-14 0)
(-1.4924e-13 -9.08143e-14 0)
(-1.20109e-13 -8.39068e-14 0)
(-1.09829e-13 -4.52425e-14 0)
(-5.65257e-14 -3.62792e-14 0)
(-1.6501e-13 1.19314e-14 0)
(-2.5284e-13 1.02687e-13 0)
(-4.16996e-13 1.03075e-13 0)
(-6.24479e-13 1.47963e-13 0)
(-5.40319e-13 1.06052e-13 0)
(-6.32924e-13 1.07049e-13 0)
(-6.01053e-13 1.0481e-13 0)
(-6.25151e-13 8.84055e-14 0)
(-7.27688e-13 1.74621e-13 0)
(-4.30842e-13 1.30506e-13 0)
(-4.45902e-13 8.26047e-14 0)
(-6.8685e-13 1.40601e-13 0)
(-5.85392e-13 2.04156e-13 0)
(-3.87593e-13 1.52889e-13 0)
(-5.93957e-13 1.01383e-13 0)
(-7.26276e-13 6.53078e-14 0)
(-8.34843e-13 1.14603e-13 0)
(-8.21308e-13 9.81028e-14 0)
(-5.76739e-13 8.15528e-14 0)
(-6.90779e-13 1.40442e-13 0)
(-9.43633e-13 1.60541e-13 0)
(-9.95458e-13 9.71475e-14 0)
(-8.63066e-13 9.98679e-14 0)
(-8.14732e-13 2.31922e-14 0)
(-8.71771e-13 -5.66639e-14 0)
(-8.99018e-13 -3.94656e-14 0)
(-8.72495e-13 6.93797e-15 0)
(-1.16791e-12 -3.75707e-14 0)
(-1.52246e-12 -5.31309e-14 0)
(-1.74888e-12 -1.15485e-13 0)
(-1.60309e-12 -6.84668e-14 0)
(-1.41232e-12 -2.57463e-14 0)
(-1.44007e-12 -2.85536e-14 0)
(-1.362e-12 3.56958e-15 0)
(-1.27023e-12 -6.42001e-14 0)
(-1.45432e-12 6.30389e-14 0)
(-1.80824e-12 1.22327e-13 0)
(-1.8941e-12 2.96015e-13 0)
(-1.66842e-12 2.84076e-13 0)
(-1.84362e-12 3.67485e-14 0)
(-1.96035e-12 2.04827e-14 0)
(-1.6777e-12 5.22231e-14 0)
(-1.38312e-12 5.82476e-14 0)
(-1.49059e-12 5.24212e-14 0)
(-1.78597e-12 2.91453e-14 0)
(-1.91607e-12 8.46963e-14 0)
(-1.77729e-12 1.33322e-13 0)
(-1.72351e-12 1.85089e-13 0)
(-2.01491e-12 2.17602e-13 0)
(-1.96352e-12 2.72243e-13 0)
(-2011.47 6.27661e-05 0)
(-460.432 0.00029528 0)
(113.346 -0.000254372 0)
(106.821 -0.000244307 0)
(106.817 -0.000239923 0)
(106.714 -0.000134864 0)
(106.818 4.72654e-05 0)
(106.916 -0.000225317 0)
(107.026 -0.000509319 0)
(107.137 -0.00013501 0)
(107.248 0.000421428 0)
(107.359 0.000254733 0)
(107.471 -0.000635091 0)
(107.584 -0.00107947 0)
(107.696 -0.000187592 0)
(107.808 0.00111607 0)
(107.919 0.00147854 0)
(108.031 0.000544561 0)
(108.143 -0.00110904 0)
(108.256 -0.00150802 0)
(108.369 0.00037162 0)
(108.482 0.00427788 0)
(108.595 0.00810052 0)
(108.707 0.00945124 0)
(108.819 0.00786359 0)
(108.93 0.00580438 0)
(109.042 0.00359691 0)
(109.159 0.00130909 0)
(109.277 -0.00271723 0)
(109.398 -0.00442345 0)
(109.52 -0.00509661 0)
(109.643 -0.00590312 0)
(109.768 -0.00495182 0)
(109.901 -0.00491131 0)
(110.044 -0.00402288 0)
(110.205 -0.00345759 0)
(110.385 -0.00336143 0)
(110.582 -0.00175474 0)
(110.781 -0.00188633 0)
(110.952 -0.00190993 0)
(111.064 -0.000978804 0)
(111.1 -0.00117799 0)
(111.113 -0.000322124 0)
(111.13 -0.000202205 0)
(111.203 0.000676221 0)
(111.339 0.000508515 0)
(111.398 0.000227011 0)
(111.616 0.000182484 0)
(111.738 0.000443809 0)
(111.873 0.000314371 0)
(112.014 0.000176603 0)
(112.155 -0.000354274 0)
(112.305 -0.000358273 0)
(112.451 -0.000395385 0)
(112.63 -0.000371807 0)
(112.754 -0.00023893 0)
(112.906 -0.00012779 0)
(113.065 1.07168e-05 0)
(113.226 0.000107865 0)
(113.389 0.000138312 0)
(113.554 0.000112645 0)
(113.723 4.73292e-05 0)
(113.894 -2.41861e-05 0)
(114.069 -6.17928e-05 0)
(114.25 -5.66993e-05 0)
(114.433 -2.59926e-05 0)
(114.617 2.05633e-05 0)
(114.804 5.38619e-05 0)
(114.995 5.77224e-05 0)
(115.19 3.41838e-05 0)
(115.389 -9.95618e-09 0)
(115.591 -1.9948e-05 0)
(115.797 -1.20593e-05 0)
(116.007 1.88479e-05 0)
(116.221 5.44964e-05 0)
(116.44 7.18383e-05 0)
(116.663 4.75749e-05 0)
(116.891 -8.70331e-07 0)
(117.124 -3.1989e-05 0)
(117.361 -2.17336e-05 0)
(117.604 5.04756e-05 0)
(117.853 0.000143317 0)
(118.106 0.000182343 0)
(118.366 0.000154999 0)
(118.631 -1.31813e-05 0)
(118.902 -0.000310825 0)
(119.179 -0.000590355 0)
(119.462 -0.000672444 0)
(119.751 -0.000572492 0)
(120.046 -0.000321482 0)
(120.348 8.34654e-05 0)
(120.658 0.000541088 0)
(120.976 0.000948781 0)
(121.303 0.00122222 0)
(121.638 0.00127781 0)
(121.981 0.00110752 0)
(122.333 0.000755116 0)
(122.694 0.000380374 0)
(123.063 0.000133557 0)
(123.442 6.57068e-05 0)
(123.831 9.47929e-05 0)
(124.23 0.000159198 0)
(124.641 0.000185195 0)
(125.062 6.72115e-05 0)
(125.495 -0.000184829 0)
(125.94 -0.000434599 0)
(126.398 -0.000535644 0)
(126.869 -0.000480728 0)
(127.354 -0.000350004 0)
(127.852 -0.000124206 0)
(128.366 0.000132256 0)
(128.895 0.000358026 0)
(129.44 0.000511116 0)
(130 0.000536222 0)
(130.576 0.000458239 0)
(131.166 0.000256236 0)
(131.771 1.85154e-05 0)
(132.391 -0.000169724 0)
(133.026 -0.000261139 0)
(133.678 -0.000241754 0)
(134.35 -0.000166621 0)
(135.045 -7.08815e-05 0)
(135.765 6.63693e-06 0)
(136.513 5.91984e-05 0)
(137.288 8.40089e-05 0)
(138.091 8.40937e-05 0)
(138.92 6.35994e-05 0)
(139.775 3.36958e-05 0)
(140.654 6.45599e-06 0)
(141.555 -1.08486e-05 0)
(142.478 -1.92196e-05 0)
(143.427 -1.91467e-05 0)
(144.408 -1.26674e-05 0)
(145.421 -5.99687e-06 0)
(146.442 1.26567e-07 0)
(147.444 4.14758e-06 0)
(148.525 6.96247e-06 0)
(150.022 6.89402e-06 0)
(152.028 5.32023e-06 0)
(152.859 2.7643e-06 0)
(152.539 9.76473e-07 0)
(149.124 -7.78615e-07 0)
(130.259 -1.9257e-06 0)
(71.8222 -1.47667e-06 0)
(11.528 -2.72508e-07 0)
(0.25215 -6.36167e-09 0)
(0.000462422 -1.18872e-11 0)
(4.49482e-08 1.46258e-14 0)
(1.98838e-12 1.63746e-13 0)
(7.77343e-13 -3.34268e-15 0)
(5.82706e-13 -3.94472e-14 0)
(6.09322e-13 7.13556e-14 0)
(4.83915e-13 -1.11053e-14 0)
(1.50215e-13 -1.38507e-14 0)
(1.73423e-13 4.84863e-14 0)
(1.62558e-13 -5.06805e-14 0)
(-1.69938e-13 -2.62403e-14 0)
(-2.92343e-13 1.10606e-13 0)
(-3.73074e-13 2.23362e-14 0)
(-5.95319e-13 1.96477e-13 0)
(-6.32922e-13 3.04004e-13 0)
(-5.31826e-13 3.11074e-13 0)
(-4.21063e-13 2.6249e-13 0)
(-4.78211e-13 2.72831e-13 0)
(-5.22714e-13 3.13536e-13 0)
(-3.06173e-13 3.23478e-13 0)
(-2.18285e-13 2.72198e-13 0)
(-2.69694e-13 2.43142e-13 0)
(-2.76017e-13 1.74391e-13 0)
(-2.42622e-13 2.12414e-13 0)
(3.76465e-14 1.58599e-13 0)
(4.44063e-13 1.5239e-13 0)
(3.76217e-13 1.16348e-13 0)
(4.2447e-13 -3.44657e-14 0)
(5.66514e-13 -1.23153e-13 0)
(5.05092e-13 -9.04505e-14 0)
(4.08938e-13 -2.30395e-13 0)
(5.39762e-14 -2.50947e-13 0)
(4.85768e-14 -1.92154e-13 0)
(8.63537e-14 -2.36855e-13 0)
(2.2008e-13 -1.90775e-13 0)
(1.62382e-13 -7.41656e-14 0)
(9.929e-14 -1.38272e-13 0)
(8.34851e-14 -2.1301e-13 0)
(-4.86641e-14 -1.46342e-13 0)
(9.97394e-14 -8.04088e-14 0)
(2.91516e-14 -8.44359e-14 0)
(4.65423e-15 -8.01606e-14 0)
(3.4579e-14 -8.02991e-14 0)
(-1.16457e-13 -1.06581e-13 0)
(-1.23325e-13 -6.99691e-14 0)
(-1.7337e-13 -5.50564e-14 0)
(-3.56476e-13 1.54712e-14 0)
(-3.13859e-13 1.64318e-14 0)
(-3.08105e-13 -3.05632e-15 0)
(-5.06689e-13 -4.16796e-14 0)
(-3.69335e-13 1.3312e-13 0)
(2.059e-14 1.36663e-13 0)
(1.65112e-13 1.99116e-13 0)
(1.08274e-14 2.82348e-13 0)
(-3.09765e-14 3.09995e-13 0)
(-2.48062e-14 2.88313e-13 0)
(1.60688e-13 2.83734e-13 0)
(5.10002e-13 2.48702e-13 0)
(6.66464e-13 2.03436e-13 0)
(7.55962e-13 1.84989e-13 0)
(7.53322e-13 4.85442e-15 0)
(4.59699e-13 -1.89403e-14 0)
(4.17644e-13 1.02523e-13 0)
(5.47265e-13 7.35615e-14 0)
(4.34781e-13 -6.37415e-14 0)
(2.44168e-13 -1.29253e-15 0)
(1.20064e-13 -4.58016e-15 0)
(1.93911e-13 2.49603e-14 0)
(3.74938e-13 1.17081e-13 0)
(2.82533e-13 2.74533e-14 0)
(1.46158e-13 -2.96549e-14 0)
(-3.35743e-14 -1.06926e-13 0)
(-9.66851e-15 -2.19665e-13 0)
(1.13354e-14 -1.34726e-13 0)
(-1.13209e-13 -1.37616e-14 0)
(-1.39372e-13 -1.9412e-13 0)
(-6.36343e-15 -3.03174e-13 0)
(-1.27296e-13 -2.29746e-13 0)
(-3.94879e-13 -7.9345e-14 0)
(-3.36746e-13 7.42509e-14 0)
(-1.04734e-13 6.63924e-14 0)
(8.9393e-14 1.44192e-13 0)
(1.90105e-13 2.92052e-13 0)
(2.17468e-13 2.24763e-13 0)
(2.82897e-13 2.29482e-13 0)
(4.78664e-13 2.54331e-13 0)
(7.64718e-13 2.54579e-13 0)
(6.75625e-13 2.00337e-13 0)
(4.79036e-13 2.23413e-13 0)
(6.88725e-13 2.25492e-13 0)
(7.98622e-13 3.53202e-13 0)
(8.70209e-13 3.89422e-13 0)
(8.16439e-13 2.72627e-13 0)
(8.34903e-13 2.76365e-13 0)
(9.86578e-13 2.84951e-13 0)
(1.02221e-12 3.38174e-13 0)
(8.12924e-13 2.08206e-13 0)
(4.67647e-13 1.57775e-13 0)
(4.67862e-13 5.4124e-15 0)
(2.66305e-13 -6.76598e-14 0)
(-3.32635e-14 -1.14657e-13 0)
(-4.42528e-14 -8.56955e-14 0)
(-1.18264e-13 -6.90498e-15 0)
(-1.22205e-13 5.88139e-15 0)
(-8.0451e-14 6.31242e-14 0)
(-2.11387e-13 1.75713e-13 0)
(-3.39773e-13 1.8726e-13 0)
(-6.55581e-13 2.17375e-13 0)
(-6.16181e-13 2.04717e-13 0)
(-5.99609e-13 1.21022e-13 0)
(-6.32348e-13 1.61264e-13 0)
(-5.26068e-13 1.51064e-13 0)
(-7.51472e-13 2.19864e-13 0)
(-5.82578e-13 1.79429e-13 0)
(-3.6015e-13 1.49804e-13 0)
(-5.37897e-13 2.69896e-13 0)
(-6.04818e-13 3.53857e-13 0)
(-5.7386e-13 3.04439e-13 0)
(-7.58825e-13 1.91591e-13 0)
(-7.34188e-13 1.60576e-13 0)
(-7.50938e-13 1.92231e-13 0)
(-8.48086e-13 2.04517e-13 0)
(-6.10393e-13 8.92159e-14 0)
(-6.22666e-13 1.15038e-13 0)
(-1.01052e-12 1.13878e-13 0)
(-1.01289e-12 1.90224e-13 0)
(-9.12583e-13 2.16731e-13 0)
(-1.05202e-12 1.03341e-13 0)
(-9.4598e-13 3.96441e-14 0)
(-7.4768e-13 7.95552e-14 0)
(-9.28874e-13 9.4682e-14 0)
(-1.25663e-12 -6.73272e-14 0)
(-1.57276e-12 -1.94038e-15 0)
(-1.65316e-12 -5.56248e-14 0)
(-1.53074e-12 3.73169e-14 0)
(-1.33889e-12 1.75964e-13 0)
(-1.38126e-12 1.64395e-13 0)
(-1.35857e-12 1.59625e-13 0)
(-1.24265e-12 1.04399e-13 0)
(-1.38702e-12 1.29545e-13 0)
(-1.73204e-12 8.64758e-14 0)
(-1.77262e-12 1.80662e-13 0)
(-1.95704e-12 2.49379e-13 0)
(-2.0163e-12 1.52708e-13 0)
(-1.78933e-12 1.84901e-13 0)
(-1.60614e-12 2.31262e-13 0)
(-1.41248e-12 1.94169e-13 0)
(-1.55495e-12 1.62326e-13 0)
(-1.76564e-12 1.07389e-13 0)
(-1.71619e-12 1.87074e-13 0)
(-1.58396e-12 3.34074e-13 0)
(-1.62282e-12 4.1969e-13 0)
(-1.82611e-12 5.07082e-13 0)
(-1.77047e-12 6.32241e-13 0)
(-2011.47 0.000212647 0)
(-460.432 0.00016272 0)
(113.346 -0.000298011 0)
(106.821 -0.000298336 0)
(106.817 -0.000299674 0)
(106.714 -0.000209831 0)
(106.818 4.84625e-05 0)
(106.916 -0.000382956 0)
(107.026 -0.000824618 0)
(107.137 -0.000288671 0)
(107.248 0.00066248 0)
(107.359 0.000434856 0)
(107.471 -0.000826041 0)
(107.584 -0.00146646 0)
(107.696 -7.96004e-05 0)
(107.809 0.00199789 0)
(107.92 0.00250837 0)
(108.031 0.000874594 0)
(108.143 -0.00135139 0)
(108.256 -0.00156885 0)
(108.37 0.0014204 0)
(108.483 0.00711861 0)
(108.596 0.0121184 0)
(108.709 0.0137307 0)
(108.82 0.0133909 0)
(108.931 0.0109528 0)
(109.045 0.00658712 0)
(109.161 0.00230715 0)
(109.28 -0.00382404 0)
(109.401 -0.00641943 0)
(109.523 -0.00770386 0)
(109.646 -0.00916966 0)
(109.772 -0.00817635 0)
(109.903 -0.00844096 0)
(110.046 -0.00717779 0)
(110.206 -0.00629794 0)
(110.385 -0.00580844 0)
(110.581 -0.00297117 0)
(110.78 -0.00292822 0)
(110.952 -0.00259993 0)
(111.064 -0.000793404 0)
(111.099 -0.00104204 0)
(111.112 3.482e-06 0)
(111.13 -0.000226662 0)
(111.202 0.000273527 0)
(111.338 6.22037e-05 0)
(111.397 -0.00011477 0)
(111.616 -4.44898e-05 0)
(111.738 0.000341419 0)
(111.873 3.10524e-05 0)
(112.013 2.73045e-05 0)
(112.154 -0.000229942 0)
(112.304 -0.000261827 0)
(112.451 -0.000336197 0)
(112.63 -0.000314807 0)
(112.753 -0.000152416 0)
(112.906 -3.51641e-05 0)
(113.065 7.94686e-05 0)
(113.226 0.000114241 0)
(113.388 8.49056e-05 0)
(113.554 1.95872e-05 0)
(113.722 -5.19159e-05 0)
(113.894 -0.000103439 0)
(114.069 -0.000111125 0)
(114.249 -8.71257e-05 0)
(114.432 -5.76243e-05 0)
(114.617 -3.97357e-05 0)
(114.804 -3.26481e-05 0)
(114.995 -4.59599e-05 0)
(115.19 -7.75991e-05 0)
(115.388 -0.000108495 0)
(115.591 -0.000123173 0)
(115.797 -0.000116144 0)
(116.007 -8.39579e-05 0)
(116.221 -4.77459e-05 0)
(116.439 -2.38737e-05 0)
(116.662 -3.51729e-06 0)
(116.89 4.80891e-06 0)
(117.123 1.35233e-05 0)
(117.361 4.51138e-05 0)
(117.604 7.95934e-05 0)
(117.852 8.11055e-05 0)
(118.106 1.26105e-05 0)
(118.365 -0.000214672 0)
(118.631 -0.000576077 0)
(118.902 -0.000969753 0)
(119.179 -0.00125278 0)
(119.462 -0.0012887 0)
(119.751 -0.000973718 0)
(120.046 -0.000322807 0)
(120.349 0.000446716 0)
(120.659 0.00115779 0)
(120.977 0.00169501 0)
(121.303 0.00198656 0)
(121.637 0.00197036 0)
(121.98 0.00161555 0)
(122.332 0.00111741 0)
(122.693 0.000648078 0)
(123.063 0.00031661 0)
(123.442 0.000139351 0)
(123.831 7.82038e-05 0)
(124.23 2.12095e-05 0)
(124.64 -0.000136389 0)
(125.062 -0.000395355 0)
(125.495 -0.000682489 0)
(125.94 -0.000897069 0)
(126.398 -0.000974585 0)
(126.869 -0.000868283 0)
(127.354 -0.00055507 0)
(127.853 -0.000135522 0)
(128.366 0.000280057 0)
(128.895 0.000593106 0)
(129.44 0.000746233 0)
(130 0.00072161 0)
(130.575 0.000494626 0)
(131.166 0.000186262 0)
(131.771 -9.267e-05 0)
(132.391 -0.000274163 0)
(133.026 -0.000349704 0)
(133.678 -0.000350151 0)
(134.351 -0.000265095 0)
(135.045 -0.000134999 0)
(135.766 -4.48673e-06 0)
(136.513 8.53038e-05 0)
(137.288 0.000125157 0)
(138.091 0.00013181 0)
(138.92 0.000106084 0)
(139.775 6.27132e-05 0)
(140.654 1.85961e-05 0)
(141.555 -1.59484e-05 0)
(142.478 -3.58628e-05 0)
(143.427 -4.00717e-05 0)
(144.408 -3.57235e-05 0)
(145.421 -2.36454e-05 0)
(146.442 -9.18693e-06 0)
(147.444 3.08499e-06 0)
(148.525 1.07674e-05 0)
(150.022 1.29703e-05 0)
(152.028 1.03236e-05 0)
(152.859 5.74484e-06 0)
(152.539 2.6707e-06 0)
(149.124 -7.61196e-07 0)
(130.259 -2.82023e-06 0)
(71.8222 -2.20965e-06 0)
(11.528 -4.16474e-07 0)
(0.25215 -9.82363e-09 0)
(0.000462423 -1.8321e-11 0)
(4.49487e-08 6.89243e-14 0)
(1.63778e-12 2.41848e-13 0)
(5.33366e-13 8.2186e-14 0)
(7.4316e-13 6.39883e-14 0)
(7.45526e-13 1.22763e-13 0)
(4.8202e-13 4.19373e-14 0)
(2.05644e-13 8.56221e-14 0)
(8.00092e-14 7.85691e-14 0)
(7.04965e-14 4.15519e-14 0)
(5.06942e-14 8.18362e-14 0)
(-2.88927e-13 1.02985e-13 0)
(-3.39602e-13 1.48323e-13 0)
(-2.42911e-13 2.25939e-13 0)
(-4.75632e-13 3.49174e-13 0)
(-6.08452e-13 4.08274e-13 0)
(-4.57618e-13 3.53816e-13 0)
(-4.86319e-13 4.22532e-13 0)
(-5.11912e-13 3.59327e-13 0)
(-3.19829e-13 3.51093e-13 0)
(-3.88803e-13 3.49602e-13 0)
(-4.6315e-13 3.02802e-13 0)
(-2.67135e-13 2.96819e-13 0)
(-1.8494e-13 3.56759e-13 0)
(-2.46928e-14 3.26993e-13 0)
(2.5456e-13 2.30643e-13 0)
(1.92517e-13 1.23968e-13 0)
(2.94315e-13 5.21705e-14 0)
(4.84261e-13 -3.06097e-14 0)
(4.21148e-13 -8.74909e-14 0)
(2.99523e-13 -6.09792e-14 0)
(2.34068e-13 -8.76139e-14 0)
(1.42268e-13 -3.99593e-14 0)
(1.27849e-13 -2.43558e-14 0)
(2.28252e-13 4.23247e-14 0)
(1.59105e-13 -4.25958e-14 0)
(-6.24745e-14 -2.5336e-15 0)
(-1.34335e-14 -1.17434e-13 0)
(8.97278e-14 -1.85572e-13 0)
(1.46755e-13 -1.92557e-13 0)
(6.82162e-14 -2.08221e-13 0)
(1.91383e-14 -2.4233e-13 0)
(-6.90649e-15 -2.08062e-13 0)
(-1.71806e-13 -1.77257e-13 0)
(-1.03052e-13 -1.29334e-13 0)
(-6.35944e-14 -9.69314e-14 0)
(-2.64334e-13 -6.75827e-14 0)
(-3.33347e-13 -3.48824e-14 0)
(-4.46034e-13 -7.34513e-15 0)
(-3.33708e-13 -8.74514e-14 0)
(-1.6152e-13 9.32997e-14 0)
(9.12531e-14 2.24346e-13 0)
(2.42069e-13 1.99248e-13 0)
(6.48617e-14 1.94677e-13 0)
(-2.75368e-14 2.00397e-13 0)
(3.58904e-14 2.33352e-13 0)
(1.12164e-13 2.54442e-13 0)
(4.67351e-13 3.15187e-13 0)
(7.61783e-13 2.65097e-13 0)
(6.89729e-13 2.1555e-13 0)
(5.52609e-13 2.42552e-13 0)
(6.05369e-13 2.23749e-13 0)
(6.0098e-13 3.02684e-13 0)
(3.22013e-13 3.65021e-13 0)
(1.64134e-13 1.9527e-13 0)
(2.17888e-13 7.95545e-14 0)
(1.92115e-13 6.11962e-14 0)
(2.84649e-13 4.84634e-15 0)
(4.18601e-13 -5.16312e-14 0)
(2.09033e-13 -1.82047e-14 0)
(5.94374e-14 4.90728e-14 0)
(-6.43479e-14 5.02724e-15 0)
(-5.08286e-14 8.42942e-14 0)
(1.23402e-13 1.07472e-13 0)
(-1.05281e-13 8.27439e-14 0)
(-3.437e-13 -3.75475e-14 0)
(-2.24896e-13 -6.68029e-14 0)
(-2.55036e-14 -4.95919e-14 0)
(-1.09659e-13 2.256e-14 0)
(-1.60906e-13 8.26119e-14 0)
(-4.42388e-15 1.53164e-13 0)
(2.44842e-13 2.38271e-13 0)
(2.79613e-13 2.1594e-13 0)
(1.24189e-13 2.59198e-13 0)
(2.14535e-13 1.46564e-13 0)
(5.40527e-13 2.06898e-13 0)
(6.47567e-13 1.59633e-13 0)
(5.66373e-13 1.62066e-13 0)
(5.50779e-13 1.67518e-13 0)
(7.93044e-13 2.0532e-13 0)
(9.36492e-13 2.2252e-13 0)
(7.8299e-13 2.89859e-13 0)
(7.12541e-13 2.33654e-13 0)
(9.19235e-13 3.22919e-13 0)
(1.03025e-12 3.25311e-13 0)
(8.68279e-13 2.70133e-13 0)
(6.66038e-13 1.30053e-13 0)
(4.29034e-13 8.05833e-14 0)
(3.52074e-13 -2.85066e-14 0)
(6.27753e-14 -9.38687e-14 0)
(-9.18398e-14 -1.85544e-13 0)
(2.94219e-14 -1.88681e-13 0)
(-9.88865e-15 -1.70888e-13 0)
(-5.87567e-14 -1.20018e-13 0)
(-1.2381e-14 -1.65109e-14 0)
(-9.81255e-14 6.09222e-14 0)
(-3.4386e-13 1.17816e-13 0)
(-6.15228e-13 9.05027e-14 0)
(-7.40859e-13 1.85349e-13 0)
(-6.66671e-13 1.50986e-13 0)
(-5.96671e-13 1.83578e-13 0)
(-6.05034e-13 5.87521e-14 0)
(-6.74604e-13 5.01615e-14 0)
(-5.60636e-13 1.11123e-13 0)
(-3.16879e-13 1.02969e-13 0)
(-3.94767e-13 1.7629e-13 0)
(-5.5698e-13 3.23891e-13 0)
(-7.69959e-13 2.38815e-13 0)
(-8.81895e-13 1.2652e-13 0)
(-7.04621e-13 1.65689e-13 0)
(-6.90507e-13 1.86371e-13 0)
(-9.17959e-13 1.61881e-13 0)
(-7.53756e-13 1.88004e-13 0)
(-7.04978e-13 1.22872e-13 0)
(-8.50601e-13 4.92987e-14 0)
(-7.87157e-13 2.21333e-13 0)
(-9.99564e-13 2.03206e-13 0)
(-1.09705e-12 1.54749e-13 0)
(-8.75345e-13 1.80637e-13 0)
(-8.38125e-13 2.39693e-13 0)
(-1.14502e-12 1.5818e-13 0)
(-1.32347e-12 4.42371e-14 0)
(-1.4384e-12 1.15858e-13 0)
(-1.61494e-12 1.15695e-13 0)
(-1.37743e-12 2.21997e-13 0)
(-1.24867e-12 2.88528e-13 0)
(-1.45871e-12 2.53451e-13 0)
(-1.37318e-12 2.38652e-13 0)
(-1.29502e-12 2.23843e-13 0)
(-1.55294e-12 1.28058e-13 0)
(-1.79679e-12 8.00646e-14 0)
(-1.67533e-12 7.78383e-14 0)
(-1.74231e-12 1.63652e-13 0)
(-1.8898e-12 2.75988e-13 0)
(-1.74771e-12 3.65075e-13 0)
(-1.70636e-12 3.08992e-13 0)
(-1.5437e-12 3.46676e-13 0)
(-1.60888e-12 2.98827e-13 0)
(-1.76414e-12 3.52368e-13 0)
(-1.60226e-12 4.33614e-13 0)
(-1.45111e-12 4.78311e-13 0)
(-1.51412e-12 3.63741e-13 0)
(-1.45628e-12 4.64625e-13 0)
(-1.43186e-12 5.04901e-13 0)
(-2011.47 7.73339e-05 0)
(-460.431 3.00064e-05 0)
(113.346 -0.00046388 0)
(106.821 -0.000437737 0)
(106.817 -0.0004323 0)
(106.714 -0.000256652 0)
(106.818 5.66968e-06 0)
(106.916 -0.000514956 0)
(107.026 -0.00101547 0)
(107.137 -0.000389953 0)
(107.248 0.000868348 0)
(107.359 0.000674479 0)
(107.471 -0.000880395 0)
(107.584 -0.00168179 0)
(107.696 3.75313e-05 0)
(107.809 0.00278586 0)
(107.92 0.00360447 0)
(108.032 0.0016519 0)
(108.143 -0.00117381 0)
(108.256 -0.00176977 0)
(108.37 0.00188355 0)
(108.484 0.00884607 0)
(108.598 0.0151082 0)
(108.711 0.0177724 0)
(108.823 0.0186589 0)
(108.935 0.0150503 0)
(109.049 0.00837148 0)
(109.165 0.00246252 0)
(109.284 -0.00527089 0)
(109.404 -0.0089348 0)
(109.526 -0.010811 0)
(109.648 -0.012832 0)
(109.774 -0.0117168 0)
(109.905 -0.0118113 0)
(110.047 -0.00991326 0)
(110.206 -0.00841354 0)
(110.385 -0.00759935 0)
(110.581 -0.00381639 0)
(110.78 -0.00342896 0)
(110.951 -0.00278267 0)
(111.063 -0.000614784 0)
(111.099 -0.0010843 0)
(111.112 -0.000115811 0)
(111.13 -0.000431784 0)
(111.202 -3.8573e-05 0)
(111.338 3.46637e-05 0)
(111.397 -0.000272488 0)
(111.616 -6.2864e-05 0)
(111.738 0.000147294 0)
(111.873 -0.000161384 0)
(112.013 1.98724e-05 0)
(112.154 -0.000175575 0)
(112.304 -0.000247976 0)
(112.45 -0.000274444 0)
(112.63 -0.000208242 0)
(112.753 -5.87731e-05 0)
(112.906 1.95188e-05 0)
(113.065 7.08593e-05 0)
(113.226 7.40375e-05 0)
(113.388 1.13008e-05 0)
(113.553 -5.68531e-05 0)
(113.722 -0.00011117 0)
(113.894 -0.000141869 0)
(114.069 -0.000147037 0)
(114.249 -0.000139443 0)
(114.432 -0.000127602 0)
(114.617 -0.000119714 0)
(114.804 -0.000123495 0)
(114.995 -0.000139308 0)
(115.19 -0.000175797 0)
(115.388 -0.000224153 0)
(115.59 -0.000257719 0)
(115.797 -0.000252586 0)
(116.007 -0.0002069 0)
(116.221 -0.000124121 0)
(116.439 -3.6722e-05 0)
(116.663 2.24867e-05 0)
(116.89 6.53763e-05 0)
(117.123 9.69318e-05 0)
(117.361 0.000115916 0)
(117.604 0.000130206 0)
(117.852 0.00012926 0)
(118.106 2.16434e-05 0)
(118.365 -0.000235984 0)
(118.63 -0.000612677 0)
(118.901 -0.00102105 0)
(119.178 -0.00134282 0)
(119.462 -0.00148028 0)
(119.751 -0.00132212 0)
(120.047 -0.000809254 0)
(120.35 1.6811e-05 0)
(120.66 0.00098207 0)
(120.978 0.00181923 0)
(121.303 0.00230384 0)
(121.637 0.00238183 0)
(121.98 0.00210346 0)
(122.332 0.00159476 0)
(122.693 0.00103859 0)
(123.063 0.000567036 0)
(123.442 0.000237205 0)
(123.831 2.64991e-05 0)
(124.23 -0.000161313 0)
(124.64 -0.000385949 0)
(125.061 -0.000636203 0)
(125.495 -0.000846599 0)
(125.94 -0.000981863 0)
(126.398 -0.00101329 0)
(126.87 -0.000909125 0)
(127.354 -0.000642962 0)
(127.853 -0.0002396 0)
(128.367 0.000207269 0)
(128.896 0.000559609 0)
(129.44 0.000725702 0)
(130 0.000718426 0)
(130.575 0.000557767 0)
(131.165 0.000293214 0)
(131.771 1.27723e-05 0)
(132.39 -0.000213363 0)
(133.026 -0.000344059 0)
(133.678 -0.000381511 0)
(134.351 -0.000357774 0)
(135.046 -0.000252071 0)
(135.766 -0.000111584 0)
(136.513 2.49515e-05 0)
(137.288 0.000121242 0)
(138.091 0.000158645 0)
(138.92 0.000155962 0)
(139.775 0.000114688 0)
(140.653 5.72277e-05 0)
(141.554 1.29719e-06 0)
(142.478 -3.94459e-05 0)
(143.427 -5.7863e-05 0)
(144.408 -5.67534e-05 0)
(145.421 -4.16321e-05 0)
(146.442 -1.98519e-05 0)
(147.444 6.29209e-07 0)
(148.525 1.46151e-05 0)
(150.022 1.96166e-05 0)
(152.028 1.6457e-05 0)
(152.859 9.7105e-06 0)
(152.539 4.81733e-06 0)
(149.124 -7.73725e-07 0)
(130.259 -4.33518e-06 0)
(71.8222 -3.63307e-06 0)
(11.528 -7.02157e-07 0)
(0.25215 -1.6738e-08 0)
(0.000462423 -3.14492e-11 0)
(4.49489e-08 3.03649e-13 0)
(1.62047e-12 1.30608e-13 0)
(5.59706e-13 1.62983e-13 0)
(7.08673e-13 2.13666e-13 0)
(6.35026e-13 1.32506e-13 0)
(4.01037e-13 5.40248e-15 0)
(2.02502e-13 -2.88745e-14 0)
(2.33303e-13 3.33611e-15 0)
(1.99748e-13 1.32081e-13 0)
(-7.73402e-14 1.43637e-13 0)
(-2.12125e-13 1.40382e-13 0)
(-1.65907e-13 1.98858e-13 0)
(-2.27273e-13 2.52525e-13 0)
(-3.79589e-13 2.72267e-13 0)
(-5.71225e-13 3.02202e-13 0)
(-4.58198e-13 3.50062e-13 0)
(-4.41013e-13 4.17286e-13 0)
(-5.30043e-13 4.33501e-13 0)
(-2.47078e-13 4.58065e-13 0)
(-3.88786e-13 5.50225e-13 0)
(-3.9274e-13 5.66271e-13 0)
(-2.07475e-13 6.10025e-13 0)
(-9.20378e-14 5.64109e-13 0)
(-4.07707e-14 6.27553e-13 0)
(1.06304e-13 5.77743e-13 0)
(3.21662e-14 3.40141e-13 0)
(1.05718e-13 1.97482e-13 0)
(2.92952e-13 9.65327e-14 0)
(4.37343e-13 2.99597e-14 0)
(4.62639e-13 7.40583e-14 0)
(1.78685e-13 4.65334e-14 0)
(1.08779e-13 7.90404e-15 0)
(2.30052e-13 -2.40479e-14 0)
(1.93727e-13 1.67729e-14 0)
(1.03679e-13 -1.40613e-13 0)
(-4.40484e-14 -8.96595e-14 0)
(-1.86496e-13 -6.84708e-14 0)
(-1.44482e-13 -1.85621e-13 0)
(4.41068e-14 -2.24593e-13 0)
(-4.6865e-14 -2.76457e-13 0)
(2.4932e-14 -3.38346e-13 0)
(1.07045e-13 -3.10241e-13 0)
(3.80339e-14 -3.11599e-13 0)
(-1.0123e-14 -1.40524e-13 0)
(-1.06941e-13 -1.82004e-13 0)
(-2.85338e-13 -1.49183e-13 0)
(-2.49667e-13 -1.60548e-13 0)
(-3.60191e-13 -1.14143e-13 0)
(-2.9079e-13 1.73085e-14 0)
(1.84877e-14 -1.83463e-14 0)
(1.83941e-13 6.84282e-14 0)
(1.22909e-13 2.97965e-14 0)
(2.20752e-14 -3.29627e-14 0)
(2.37012e-14 -5.60567e-14 0)
(7.80718e-14 1.66519e-14 0)
(2.4198e-13 1.69058e-13 0)
(5.16406e-13 2.23622e-13 0)
(5.23228e-13 2.09003e-13 0)
(7.00531e-13 1.35239e-13 0)
(7.44788e-13 1.52212e-13 0)