/*--------------------------------*- C++ -*----------------------------------*\
| =========                 |                                                 |
| \\      /  F ield         | OpenFOAM: The Open Source CFD Toolbox           |
|  \\    /   O peration     | Version:  2306                                  |
|   \\  /    A nd           | Website:  www.openfoam.com                      |
|    \\/     M anipulation  |                                                 |
\*---------------------------------------------------------------------------*/
FoamFile
{
    version     2.0;
    format      ascii;
    arch        "LSB;label=32;scalar=64";
    class       volVectorField;
    location    "0.02";
    object      U;
}
// * * * * * * * * * * * * * * * * * * * * * * * * * * * * * * * * * * * * * //

dimensions      [0 1 -1 0 0 0 0];

internalField   nonuniform List<vector> 
6000
(
(500 -5.51788e-15 0)
(500 -1.89938e-14 0)
(500 -3.54419e-14 0)
(500 1.4727e-13 0)
(500 -2.63594e-12 0)
(499.999 9.30573e-12 0)
(499.994 4.5618e-11 0)
(499.968 -7.43455e-10 0)
(499.861 2.70901e-09 0)
(499.533 -3.45562e-09 0)
(498.934 -1.9525e-09 0)
(498.59 3.8227e-09 0)
(498.609 2.94433e-07 0)
(498.844 -1.65454e-06 0)
(499.467 -5.82627e-06 0)
(500.445 2.57727e-05 0)
(501.552 -4.65967e-05 0)
(502.539 4.43922e-05 0)
(503.278 7.96981e-05 0)
(503.78 -6.7488e-05 0)
(504.12 -1.00519e-05 0)
(504.365 1.88769e-05 0)
(504.554 1.87296e-05 0)
(504.707 3.65025e-06 0)
(504.83 -1.16605e-06 0)
(504.931 1.4687e-05 0)
(505.013 2.47935e-06 0)
(505.081 1.41917e-05 0)
(505.138 1.82775e-05 0)
(505.186 2.88956e-05 0)
(505.229 5.87912e-06 0)
(505.268 2.46254e-05 0)
(505.302 -2.91721e-05 0)
(505.322 2.39365e-05 0)
(505.326 4.29349e-06 0)
(505.325 1.29008e-06 0)
(505.322 -2.56966e-07 0)
(505.314 -7.90551e-07 0)
(505.298 -7.89749e-07 0)
(505.277 -1.06445e-06 0)
(505.255 -1.2237e-06 0)
(505.233 -9.56213e-07 0)
(505.216 -3.89293e-07 0)
(505.201 3.5058e-08 0)
(505.188 1.20005e-07 0)
(505.176 -5.14091e-09 0)
(505.164 -1.17048e-07 0)
(505.154 -2.33686e-07 0)
(505.145 -2.19788e-07 0)
(505.138 -1.24227e-07 0)
(505.132 -5.79534e-08 0)
(505.128 -5.24269e-08 0)
(505.124 -2.30854e-09 0)
(505.12 1.05746e-07 0)
(505.118 1.67996e-07 0)
(505.116 2.70231e-08 0)
(505.115 2.63281e-08 0)
(505.113 -7.65481e-08 0)
(505.11 -1.34225e-08 0)
(505.107 -7.80131e-08 0)
(505.107 -6.07067e-10 0)
(505.107 3.95828e-08 0)
(505.108 7.59193e-08 0)
(505.112 7.83255e-08 0)
(505.118 4.98323e-08 0)
(505.126 2.57487e-08 0)
(505.134 2.65697e-08 0)
(505.143 3.22287e-08 0)
(505.152 3.50955e-08 0)
(505.161 2.97263e-08 0)
(505.17 2.16167e-08 0)
(505.177 5.2678e-09 0)
(505.184 4.74615e-09 0)
(505.189 5.2608e-09 0)
(505.194 1.02761e-08 0)
(505.198 2.8083e-08 0)
(505.203 -2.90287e-08 0)
(505.207 5.82242e-09 0)
(505.207 -1.19826e-08 0)
(505.207 -1.58426e-08 0)
(505.205 -1.66102e-08 0)
(505.201 -1.19481e-08 0)
(505.195 -8.0448e-09 0)
(505.187 -8.54858e-09 0)
(505.18 -1.52726e-08 0)
(505.174 -1.14782e-08 0)
(505.169 -2.24958e-09 0)
(505.165 5.12848e-10 0)
(505.162 -2.85375e-11 0)
(505.158 -9.06723e-10 0)
(505.154 -1.60126e-09 0)
(505.152 -2.28674e-09 0)
(505.149 -3.02307e-09 0)
(505.147 -2.62727e-09 0)
(505.145 -2.11052e-09 0)
(505.143 -3.77173e-09 0)
(505.141 -5.3678e-09 0)
(505.139 -3.56488e-09 0)
(505.137 2.39227e-10 0)
(505.134 4.60427e-09 0)
(505.131 5.5724e-09 0)
(505.126 5.06486e-09 0)
(505.118 -1.88021e-11 0)
(505.107 -4.02727e-09 0)
(505.101 1.82687e-09 0)
(505.102 4.98646e-09 0)
(505.105 5.55552e-09 0)
(505.115 2.77436e-09 0)
(505.129 4.08278e-09 0)
(505.143 7.8962e-10 0)
(505.153 -3.43614e-09 0)
(505.159 2.61473e-09 0)
(505.163 4.23132e-09 0)
(505.166 1.51164e-09 0)
(505.17 -7.47935e-11 0)
(505.174 -4.75307e-10 0)
(505.179 -9.6363e-10 0)
(505.185 -1.04002e-09 0)
(505.19 1.61822e-09 0)
(505.194 2.92054e-09 0)
(505.197 1.62234e-09 0)
(505.2 6.52341e-10 0)
(505.203 -3.69112e-11 0)
(505.204 -2.98291e-10 0)
(505.203 -4.93395e-10 0)
(505.202 -5.64867e-10 0)
(505.2 -2.45066e-10 0)
(505.195 1.6484e-10 0)
(505.189 -2.48103e-10 0)
(505.182 -1.18511e-09 0)
(505.177 -1.21751e-09 0)
(505.172 -6.16589e-10 0)
(505.168 -2.00589e-10 0)
(505.163 1.65531e-10 0)
(505.158 3.81693e-10 0)
(505.155 3.44088e-10 0)
(505.153 -1.07397e-10 0)
(505.151 -1.19344e-10 0)
(505.149 -2.24797e-10 0)
(505.147 -2.80145e-10 0)
(505.146 -2.62817e-10 0)
(505.145 -9.47817e-11 0)
(505.143 1.65032e-12 0)
(505.142 1.75777e-10 0)
(505.139 2.95862e-10 0)
(505.138 3.07559e-10 0)
(505.137 2.92066e-10 0)
(505.135 2.48759e-10 0)
(505.13 1.90081e-10 0)
(505.124 1.31517e-10 0)
(505.115 5.81308e-11 0)
(505.106 -3.34599e-11 0)
(505.104 -1.12921e-10 0)
(505.044 -2.08029e-10 0)
(505.171 -1.86606e-10 0)
(505.519 -1.41177e-10 0)
(505.12 -7.02697e-11 0)
(504.998 -5.08853e-11 0)
(504.992 -5.51154e-11 0)
(504.984 -5.26589e-11 0)
(504.978 -5.10567e-11 0)
(504.981 -1.76321e-11 0)
(504.957 2.38758e-11 0)
(504.897 3.7535e-11 0)
(505.184 3.9537e-11 0)
(505.519 2.1899e-11 0)
(505.585 2.21449e-11 0)
(505.6 2.74997e-11 0)
(505.582 2.72842e-11 0)
(505.481 1.4486e-11 0)
(505.287 -1.21159e-12 0)
(505.108 -1.35281e-11 0)
(505.012 -1.59383e-11 0)
(504.913 -8.46979e-12 0)
(504.869 -5.26497e-12 0)
(504.864 -3.85364e-12 0)
(504.861 7.69899e-14 0)
(504.87 3.8249e-12 0)
(504.911 7.66566e-12 0)
(505.093 1.10849e-11 0)
(505.542 6.63747e-12 0)
(505.812 4.65091e-14 0)
(505.767 -9.55645e-13 0)
(505.701 -9.9807e-13 0)
(505.577 -9.51329e-13 0)
(505.325 4.68681e-13 0)
(505.023 8.54337e-13 0)
(504.827 8.46498e-13 0)
(504.731 4.2277e-13 0)
(504.679 -4.38856e-14 0)
(504.716 -3.34795e-13 0)
(504.742 -8.64651e-14 0)
(504.766 2.93307e-13 0)
(504.825 5.25941e-13 0)
(505.019 3.61719e-13 0)
(505.472 -6.10433e-14 0)
(505.865 4.73247e-14 0)
(505.89 -2.11774e-14 0)
(505.802 -1.38531e-13 0)
(505.692 -1.86939e-13 0)
(505.397 -2.0998e-13 0)
(504.882 1.52628e-15 0)
(504.644 -1.25403e-13 0)
(504.588 -5.64084e-13 0)
(504.574 -7.77559e-13 0)
(504.554 -9.88289e-13 0)
(504.621 -7.08651e-13 0)
(504.699 -1.75902e-13 0)
(504.787 5.26899e-13 0)
(505.007 1.00795e-12 0)
(505.513 6.20423e-13 0)
(505.934 8.59265e-14 0)
(506.025 -3.20236e-13 0)
(505.972 -4.11011e-13 0)
(505.891 -4.58448e-13 0)
(505.622 -3.13645e-13 0)
(504.991 1.6451e-13 0)
(504.608 7.61355e-13 0)
(504.562 3.28184e-13 0)
(504.567 4.16257e-13 0)
(504.577 3.88817e-13 0)
(504.603 3.91447e-13 0)
(504.699 4.30753e-13 0)
(504.982 1.36435e-13 0)
(505.301 -3.7895e-13 0)
(504.959 -7.6273e-13 0)
(491.949 -9.72613e-13 0)
(341.251 -1.24075e-12 0)
(32.8466 -9.92127e-14 0)
(0.0387906 8.6176e-14 0)
(2.19857e-07 5.87542e-14 0)
(7.96712e-13 -5.77693e-15 0)
(-4.32444e-14 5.37071e-14 0)
(9.356e-14 8.17459e-14 0)
(-2.82539e-14 8.63082e-14 0)
(-7.12481e-14 4.86388e-14 0)
(1.58822e-14 4.99934e-14 0)
(8.67718e-14 9.04556e-14 0)
(2.7452e-14 5.46835e-14 0)
(-3.67999e-14 7.74222e-14 0)
(2.01182e-14 6.4112e-14 0)
(2.55791e-14 4.42239e-14 0)
(1.00469e-15 9.88508e-14 0)
(-6.93559e-14 7.93825e-14 0)
(-1.4115e-13 5.70596e-14 0)
(-4.49846e-14 3.46818e-14 0)
(-8.43884e-14 -6.99531e-15 0)
(-5.62505e-14 1.56373e-14 0)
(-6.79306e-14 -7.06371e-14 0)
(-2.74917e-13 -4.48965e-14 0)
(-3.83752e-13 -2.7568e-14 0)
(-5.0067e-13 1.77279e-14 0)
(-4.84696e-13 4.5671e-14 0)
(-3.64632e-13 6.04175e-14 0)
(-3.64813e-13 8.84656e-14 0)
(-2.73668e-13 8.85969e-14 0)
(-3.27471e-13 4.8609e-14 0)
(-4.45884e-13 1.07798e-14 0)
(-4.82337e-13 2.83025e-14 0)
(-4.98419e-13 4.00317e-14 0)
(-4.01083e-13 6.16485e-14 0)
(-3.72677e-13 8.28047e-14 0)
(-3.60618e-13 1.14539e-13 0)
(-3.17232e-13 9.49885e-14 0)
(-3.50997e-13 6.76007e-14 0)
(-3.09892e-13 5.99253e-14 0)
(-2.37352e-13 4.42985e-14 0)
(-3.58738e-13 8.37559e-15 0)
(-3.63694e-13 5.2901e-14 0)
(-1.76838e-13 3.42229e-14 0)
(-1.35079e-13 6.16675e-14 0)
(-1.45976e-13 4.94679e-14 0)
(-1.11736e-13 3.33951e-14 0)
(-1.0004e-13 1.39463e-14 0)
(-1.36921e-13 4.03943e-15 0)
(-1.03732e-13 5.95106e-15 0)
(-1.73545e-13 -2.16453e-15 0)
(-1.89898e-13 -2.47795e-14 0)
(-6.68317e-14 -6.93387e-14 0)
(-5.71923e-14 -5.62384e-14 0)
(-3.13871e-14 -1.1952e-13 0)
(-7.34437e-15 -1.42507e-13 0)
(-1.24334e-13 -8.7091e-14 0)
(-2.08535e-13 -4.57289e-14 0)
(-1.57176e-13 2.30868e-14 0)
(-4.82014e-14 2.07495e-14 0)
(8.1964e-14 6.83026e-15 0)
(1.49055e-13 7.92127e-14 0)
(3.15352e-13 8.34296e-14 0)
(4.35351e-13 9.70733e-14 0)
(5.90431e-13 5.80533e-14 0)
(5.72575e-13 5.56379e-15 0)
(5.86818e-13 2.46168e-14 0)
(6.18854e-13 5.75225e-14 0)
(6.90073e-13 1.7056e-14 0)
(7.36201e-13 -1.92454e-14 0)
(8.05528e-13 -9.02665e-15 0)
(1.02798e-12 -2.38553e-14 0)
(1.25136e-12 -2.42532e-14 0)
(1.38171e-12 -5.38582e-14 0)
(500 1.32004e-13 0)
(500 1.8923e-13 0)
(500 -4.68979e-14 0)
(500 3.82566e-13 0)
(500 -3.03283e-12 0)
(499.999 -6.74304e-12 0)
(499.994 2.17526e-10 0)
(499.968 -1.41944e-09 0)
(499.861 4.41589e-09 0)
(499.533 -4.60652e-09 0)
(498.934 -9.84944e-09 0)
(498.59 3.79428e-09 0)
(498.609 1.8252e-07 0)
(498.844 -5.67563e-06 0)
(499.467 1.74608e-05 0)
(500.445 2.42978e-05 0)
(501.552 -0.0001228 0)
(502.539 6.39386e-05 0)
(503.278 0.000149349 0)
(503.78 -8.62099e-05 0)
(504.12 -0.000139109 0)
(504.365 2.01669e-05 0)
(504.554 0.000135671 0)
(504.707 4.1081e-05 0)
(504.83 -5.58856e-05 0)
(504.931 -4.94503e-05 0)
(505.013 -2.1547e-05 0)
(505.081 2.73985e-05 0)
(505.138 5.01477e-05 0)
(505.186 2.55061e-05 0)
(505.229 -6.52943e-05 0)
(505.268 4.33405e-07 0)
(505.302 1.62057e-05 0)
(505.322 -2.53738e-06 0)
(505.326 -1.6301e-06 0)
(505.325 -1.10558e-06 0)
(505.322 -1.059e-06 0)
(505.314 -7.47369e-07 0)
(505.298 -3.10927e-07 0)
(505.277 -7.94017e-09 0)
(505.255 -1.23444e-07 0)
(505.233 -5.96263e-07 0)
(505.216 -4.99704e-07 0)
(505.201 -1.79921e-07 0)
(505.188 -7.76082e-08 0)
(505.176 -1.84838e-07 0)
(505.164 -1.98397e-07 0)
(505.154 -1.37813e-07 0)
(505.145 -1.0375e-07 0)
(505.138 2.14734e-08 0)
(505.132 3.99486e-08 0)
(505.128 -4.73903e-08 0)
(505.124 3.35824e-08 0)
(505.12 1.43514e-07 0)
(505.118 1.28903e-07 0)
(505.116 -5.20371e-08 0)
(505.115 4.86021e-08 0)
(505.113 -4.46203e-08 0)
(505.11 -8.70522e-08 0)
(505.107 -9.63163e-08 0)
(505.107 5.64611e-08 0)
(505.107 8.50092e-08 0)
(505.108 1.2982e-07 0)
(505.112 1.54751e-07 0)
(505.118 1.28639e-07 0)
(505.126 6.38113e-08 0)
(505.134 -9.73008e-09 0)
(505.143 -3.36187e-08 0)
(505.152 -3.76388e-08 0)
(505.161 -1.10475e-08 0)
(505.17 9.44503e-09 0)
(505.177 -1.62776e-08 0)
(505.184 -2.31606e-08 0)
(505.189 -2.98262e-09 0)
(505.194 6.32987e-09 0)
(505.198 3.47019e-08 0)
(505.203 -5.05718e-08 0)
(505.207 9.4923e-08 0)
(505.207 1.73827e-08 0)
(505.207 2.0113e-09 0)
(505.205 -1.01364e-08 0)
(505.201 -1.64694e-08 0)
(505.195 -1.94177e-08 0)
(505.187 -2.77076e-08 0)
(505.18 -3.52168e-08 0)
(505.174 -3.05159e-08 0)
(505.169 -1.24135e-08 0)
(505.165 4.80381e-10 0)
(505.162 5.60952e-09 0)
(505.158 7.91292e-09 0)
(505.154 6.73427e-09 0)
(505.152 2.44382e-09 0)
(505.149 8.21604e-11 0)
(505.147 5.69934e-10 0)
(505.145 6.37319e-11 0)
(505.143 -4.58484e-09 0)
(505.141 -7.98068e-09 0)
(505.139 -4.72268e-09 0)
(505.137 2.23448e-09 0)
(505.134 7.94184e-09 0)
(505.131 8.75012e-09 0)
(505.126 2.5132e-09 0)
(505.118 -9.93849e-09 0)
(505.107 -6.5845e-09 0)
(505.101 4.97041e-09 0)
(505.102 7.71649e-09 0)
(505.105 9.39162e-09 0)
(505.115 5.15141e-09 0)
(505.129 2.29525e-09 0)
(505.143 -4.80056e-09 0)
(505.153 -8.14632e-09 0)
(505.159 2.7494e-09 0)
(505.163 6.28272e-09 0)
(505.166 3.26104e-09 0)
(505.17 5.10532e-10 0)
(505.174 -1.54602e-09 0)
(505.179 -4.05397e-09 0)
(505.185 -2.52133e-09 0)
(505.19 8.19077e-10 0)
(505.194 2.4094e-09 0)
(505.197 1.96357e-09 0)
(505.2 1.72394e-09 0)
(505.203 1.21801e-09 0)
(505.204 6.34867e-10 0)
(505.203 -8.9135e-10 0)
(505.202 -1.32664e-09 0)
(505.2 -1.34686e-09 0)
(505.195 -1.08925e-09 0)
(505.189 -7.53969e-10 0)
(505.182 -5.17249e-10 0)
(505.177 2.82709e-10 0)
(505.172 5.44902e-10 0)
(505.168 -3.18287e-10 0)
(505.163 -5.22583e-10 0)
(505.158 -8.06661e-11 0)
(505.155 -3.1584e-10 0)
(505.153 4.19782e-11 0)
(505.151 2.28586e-10 0)
(505.149 3.89537e-10 0)
(505.147 1.43952e-10 0)
(505.146 -3.33383e-11 0)
(505.145 -4.22121e-11 0)
(505.143 -2.00547e-10 0)
(505.142 -1.10536e-11 0)
(505.139 2.2393e-10 0)
(505.138 2.50987e-10 0)
(505.137 2.7677e-10 0)
(505.135 2.56178e-10 0)
(505.13 1.62836e-10 0)
(505.124 2.12286e-11 0)
(505.115 -5.27743e-11 0)
(505.106 -4.78454e-11 0)
(505.104 -6.40176e-11 0)
(505.044 -1.60781e-10 0)
(505.171 -2.43221e-10 0)
(505.519 -2.83643e-10 0)
(505.12 -1.833e-10 0)
(504.998 -1.21642e-10 0)
(504.992 -1.06672e-10 0)
(504.984 -7.20045e-11 0)
(504.978 -1.67179e-11 0)
(504.981 3.46515e-11 0)
(504.957 1.29743e-10 0)
(504.897 2.19761e-10 0)
(505.184 1.56434e-10 0)
(505.519 4.51487e-11 0)
(505.585 1.44143e-11 0)
(505.6 -5.39111e-13 0)
(505.582 -2.06204e-11 0)
(505.481 -2.68575e-11 0)
(505.287 -2.65639e-11 0)
(505.108 -4.19636e-11 0)
(505.012 -6.28155e-11 0)
(504.913 -3.46204e-11 0)
(504.869 -1.70415e-11 0)
(504.864 -1.13176e-11 0)
(504.861 -5.15719e-13 0)
(504.87 1.34506e-11 0)
(504.911 3.066e-11 0)
(505.093 3.96615e-11 0)
(505.542 1.59018e-11 0)
(505.812 -3.32043e-12 0)
(505.767 -4.40187e-12 0)
(505.701 -4.86132e-12 0)
(505.577 -2.94548e-12 0)
(505.325 -1.18259e-12 0)
(505.023 -1.96644e-12 0)
(504.827 -2.883e-12 0)
(504.731 -4.31461e-12 0)
(504.679 -2.46823e-12 0)
(504.716 -1.6247e-12 0)
(504.742 -9.58478e-13 0)
(504.766 9.13109e-14 0)
(504.825 5.7496e-13 0)
(505.019 6.80137e-13 0)
(505.472 1.16339e-12 0)
(505.865 1.8155e-12 0)
(505.89 1.21828e-12 0)
(505.802 9.99806e-13 0)
(505.692 7.43539e-13 0)
(505.397 -1.12442e-13 0)
(504.882 -7.35976e-13 0)
(504.644 -1.1829e-12 0)
(504.588 -1.71302e-12 0)
(504.574 -1.77391e-12 0)
(504.554 -6.61854e-13 0)
(504.621 -2.19191e-13 0)
(504.699 2.74736e-13 0)
(504.787 1.73323e-12 0)
(505.007 2.46171e-12 0)
(505.513 1.49495e-12 0)
(505.934 -4.1481e-14 0)
(506.025 -6.52975e-13 0)
(505.972 -7.95314e-13 0)
(505.891 -1.13814e-12 0)
(505.622 -1.17178e-12 0)
(504.991 4.37651e-13 0)
(504.608 1.31976e-12 0)
(504.562 5.6622e-13 0)
(504.567 7.52598e-13 0)
(504.577 6.79834e-13 0)
(504.603 4.7526e-13 0)
(504.699 4.82406e-13 0)
(504.982 3.38289e-13 0)
(505.301 7.28207e-14 0)
(504.959 8.51686e-14 0)
(491.949 -1.80839e-12 0)
(341.251 -3.80624e-12 0)
(32.8466 -1.10072e-13 0)
(0.0387906 1.6305e-13 0)
(2.19856e-07 1.69115e-13 0)
(8.81309e-13 1.07084e-13 0)
(5.79895e-14 1.60817e-13 0)
(1.41273e-13 1.6819e-13 0)
(1.52106e-15 1.51341e-13 0)
(-9.845e-14 1.58543e-13 0)
(3.54661e-14 1.36773e-13 0)
(-1.35461e-14 1.25967e-13 0)
(-2.83998e-14 1.14397e-13 0)
(1.4584e-14 9.47538e-14 0)
(4.1972e-14 1.30121e-13 0)
(7.54435e-14 1.16093e-13 0)
(7.43651e-14 1.45754e-13 0)
(-7.55754e-14 9.81845e-14 0)
(-1.6868e-13 1.43895e-13 0)
(-1.30915e-13 9.09796e-14 0)
(-7.75831e-14 4.05118e-14 0)
(-1.12842e-13 4.8847e-14 0)
(-1.4996e-13 -2.8967e-14 0)
(-2.58449e-13 -1.02774e-14 0)
(-3.5749e-13 7.34149e-15 0)
(-4.29464e-13 4.47042e-14 0)
(-4.78613e-13 1.04684e-13 0)
(-3.42111e-13 1.16298e-13 0)
(-3.34322e-13 1.5011e-13 0)
(-3.53396e-13 1.37597e-13 0)
(-3.45216e-13 9.24686e-14 0)
(-3.93609e-13 5.85274e-14 0)
(-4.27847e-13 5.58998e-14 0)
(-4.11295e-13 1.33949e-13 0)
(-3.79826e-13 2.06042e-13 0)
(-3.43065e-13 1.60733e-13 0)
(-4.06397e-13 1.90575e-13 0)
(-4.41683e-13 1.4582e-13 0)
(-3.21604e-13 1.78009e-13 0)
(-2.91656e-13 1.84924e-13 0)
(-3.46458e-13 1.37277e-13 0)
(-3.98587e-13 1.17268e-13 0)
(-3.1893e-13 1.64526e-13 0)
(-2.20707e-13 8.18078e-14 0)
(-1.15906e-13 9.25755e-14 0)
(-1.78651e-13 2.81051e-14 0)
(-9.44978e-14 2.85393e-14 0)
(-7.99817e-14 -1.42527e-14 0)
(-1.25587e-13 1.30147e-14 0)
(-9.89488e-14 -1.30307e-14 0)
(-1.73183e-13 -3.16272e-14 0)
(-2.32739e-13 -4.77182e-15 0)
(-1.54549e-13 -4.45593e-14 0)
(-8.63817e-14 -4.81733e-14 0)
(-7.81549e-14 -7.02493e-14 0)
(7.48519e-14 -6.50005e-14 0)
(-2.92894e-14 -1.86661e-14 0)
(-1.06054e-13 -3.10541e-14 0)
(-7.45056e-14 8.05543e-14 0)
(-3.8071e-14 1.32279e-13 0)
(1.2372e-13 1.18774e-13 0)
(2.56881e-13 1.85326e-13 0)
(2.78954e-13 1.99725e-13 0)
(3.38745e-13 2.26974e-13 0)
(4.606e-13 1.70728e-13 0)
(5.47771e-13 1.031e-13 0)
(6.18075e-13 5.14621e-14 0)
(6.23466e-13 -3.9439e-15 0)
(6.36777e-13 4.07893e-14 0)
(7.39447e-13 2.2332e-14 0)
(8.35533e-13 9.1751e-14 0)
(1.00197e-12 3.08317e-15 0)
(1.20704e-12 -2.41496e-14 0)
(1.28105e-12 -1.43056e-13 0)
(500 1.00935e-13 0)
(500 2.23795e-13 0)
(500 3.83185e-14 0)
(500 5.73056e-13 0)
(500 -3.66395e-12 0)
(499.999 -1.72068e-11 0)
(499.994 3.58399e-10 0)
(499.968 -2.26228e-09 0)
(499.861 6.85338e-09 0)
(499.533 -6.17926e-09 0)
(498.934 -1.5418e-08 0)
(498.59 5.54737e-09 0)
(498.609 1.80428e-07 0)
(498.844 -8.4429e-06 0)
(499.467 2.70559e-05 0)
(500.445 3.12766e-05 0)
(501.552 -0.000192501 0)
(502.539 0.000113699 0)
(503.278 0.00023189 0)
(503.78 -0.000143725 0)
(504.12 -0.000227883 0)
(504.365 2.78845e-05 0)
(504.554 0.000206162 0)
(504.707 6.32713e-05 0)
(504.83 -8.03243e-05 0)
(504.931 -7.64122e-05 0)
(505.013 -3.87458e-05 0)
(505.081 4.59475e-05 0)
(505.138 7.87134e-05 0)
(505.186 2.65091e-05 0)
(505.229 -0.000100262 0)
(505.268 -8.5744e-06 0)
(505.302 4.15455e-05 0)
(505.322 -5.36183e-06 0)
(505.326 -1.13271e-06 0)
(505.325 1.35774e-07 0)
(505.322 1.33027e-06 0)
(505.314 1.73908e-06 0)
(505.298 1.35244e-06 0)
(505.277 6.86512e-07 0)
(505.255 -3.89479e-07 0)
(505.233 -1.11634e-06 0)
(505.216 -6.9893e-07 0)
(505.201 -5.99124e-08 0)
(505.188 1.58664e-07 0)
(505.176 4.58232e-08 0)
(505.164 -2.99542e-09 0)
(505.154 -2.72619e-08 0)
(505.145 -9.95849e-09 0)
(505.138 1.66342e-07 0)
(505.132 1.92518e-07 0)
(505.128 3.26822e-08 0)
(505.124 2.18944e-08 0)
(505.12 2.77486e-08 0)
(505.118 -2.02546e-08 0)
(505.116 -2.01152e-07 0)
(505.115 2.87341e-08 0)
(505.113 -5.76091e-08 0)
(505.11 -1.98143e-07 0)
(505.107 2.68344e-07 0)
(505.107 1.20836e-07 0)
(505.107 9.03045e-08 0)
(505.108 7.32265e-08 0)
(505.112 6.83847e-08 0)
(505.118 4.4377e-08 0)
(505.126 -6.08885e-09 0)
(505.134 -6.21633e-08 0)
(505.143 -6.25771e-08 0)
(505.152 -6.59647e-08 0)
(505.161 -3.61326e-08 0)
(505.17 2.58671e-09 0)
(505.177 -4.66695e-09 0)
(505.184 -9.04704e-09 0)
(505.189 1.99232e-08 0)
(505.194 -1.61326e-08 0)
(505.198 1.32158e-08 0)
(505.203 -1.08811e-07 0)
(505.207 1.00078e-07 0)
(505.207 6.97812e-08 0)
(505.207 6.4369e-08 0)
(505.205 4.88722e-08 0)
(505.201 1.08773e-08 0)
(505.195 -3.2864e-08 0)
(505.187 -4.93786e-08 0)
(505.18 -4.59757e-08 0)
(505.174 -2.02792e-08 0)
(505.169 5.59736e-09 0)
(505.165 1.1864e-08 0)
(505.162 7.8574e-09 0)
(505.158 3.21804e-09 0)
(505.154 1.75481e-09 0)
(505.152 2.25423e-09 0)
(505.149 2.25692e-09 0)
(505.147 3.19225e-09 0)
(505.145 3.71368e-09 0)
(505.143 1.3752e-09 0)
(505.141 4.17383e-10 0)
(505.139 2.24619e-09 0)
(505.137 2.73803e-09 0)
(505.134 9.47579e-10 0)
(505.131 -3.44675e-09 0)
(505.126 -7.36548e-09 0)
(505.118 -9.4672e-09 0)
(505.107 5.75846e-09 0)
(505.101 5.09124e-09 0)
(505.102 3.47861e-09 0)
(505.105 2.39557e-09 0)
(505.115 -6.38765e-10 0)
(505.129 1.6977e-09 0)
(505.143 -2.72549e-09 0)
(505.153 -5.6966e-09 0)
(505.159 3.44286e-09 0)
(505.163 3.86934e-09 0)
(505.166 -1.37422e-10 0)
(505.17 -1.24871e-09 0)
(505.174 -9.83736e-10 0)
(505.179 -1.58269e-09 0)
(505.185 4.66686e-10 0)
(505.19 9.46875e-10 0)
(505.194 5.52482e-10 0)
(505.197 3.69225e-10 0)
(505.2 9.64042e-10 0)
(505.203 1.98713e-09 0)
(505.204 2.11744e-09 0)
(505.203 -4.02284e-10 0)
(505.202 -1.23007e-09 0)
(505.2 -1.52914e-09 0)
(505.195 -1.25588e-09 0)
(505.189 -2.76934e-10 0)
(505.182 4.27004e-10 0)
(505.177 8.86683e-10 0)
(505.172 7.46442e-10 0)
(505.168 -9.31992e-10 0)
(505.163 -1.25797e-09 0)
(505.158 -6.60505e-10 0)
(505.155 -3.26464e-10 0)
(505.153 4.80337e-10 0)
(505.151 6.73626e-10 0)
(505.149 5.99151e-10 0)
(505.147 1.48283e-10 0)
(505.146 -2.21898e-10 0)
(505.145 -1.72352e-10 0)
(505.143 -9.06716e-11 0)
(505.142 1.67395e-11 0)
(505.139 1.09784e-10 0)
(505.138 1.00801e-10 0)
(505.137 6.17417e-11 0)
(505.135 -8.82652e-12 0)
(505.13 -1.11014e-10 0)
(505.124 -1.57553e-10 0)
(505.115 -8.12364e-11 0)
(505.106 1.02077e-10 0)
(505.104 2.10859e-10 0)
(505.044 8.82049e-11 0)
(505.171 -1.45345e-11 0)
(505.519 -1.23147e-10 0)
(505.12 -1.01267e-10 0)
(504.998 -6.28614e-11 0)
(504.992 -4.86031e-11 0)
(504.984 -9.81843e-12 0)
(504.978 5.21339e-11 0)
(504.981 1.23799e-10 0)
(504.957 2.01633e-10 0)
(504.897 1.81055e-10 0)
(505.184 8.05222e-11 0)
(505.519 4.00918e-12 0)
(505.585 -1.86473e-11 0)
(505.6 -3.14793e-11 0)
(505.582 -4.47673e-11 0)
(505.481 -5.15795e-11 0)
(505.287 -5.50781e-11 0)
(505.108 -5.60157e-11 0)
(505.012 -3.81532e-11 0)
(504.913 -6.22375e-12 0)
(504.869 5.7998e-12 0)
(504.864 9.8846e-12 0)
(504.861 1.66783e-11 0)
(504.87 2.36982e-11 0)
(504.911 2.56976e-11 0)
(505.093 1.64104e-11 0)
(505.542 2.44111e-12 0)
(505.812 -3.92644e-12 0)
(505.767 -3.78166e-12 0)
(505.701 -1.29703e-12 0)
(505.577 8.47981e-13 0)
(505.325 -1.8086e-13 0)
(505.023 -3.88808e-12 0)
(504.827 -7.02948e-12 0)
(504.731 -6.6072e-12 0)
(504.679 -2.4461e-12 0)
(504.716 -1.0016e-12 0)
(504.742 -1.11768e-13 0)
(504.766 1.21702e-12 0)
(504.825 1.68967e-12 0)
(505.019 2.07771e-12 0)
(505.472 1.64684e-12 0)
(505.865 1.11912e-12 0)
(505.89 1.09437e-12 0)
(505.802 9.90038e-13 0)
(505.692 8.91456e-13 0)
(505.397 -1.36084e-13 0)
(504.882 -1.5815e-12 0)
(504.644 -2.29467e-12 0)
(504.588 -1.95858e-12 0)
(504.574 -1.35292e-12 0)
(504.554 2.73996e-13 0)
(504.621 1.26706e-12 0)
(504.699 1.52366e-12 0)
(504.787 1.79766e-12 0)
(505.007 8.95992e-13 0)
(505.513 -1.0826e-13 0)
(505.934 -7.47652e-13 0)
(506.025 -8.19725e-13 0)
(505.972 -8.91358e-13 0)
(505.891 -8.29513e-13 0)
(505.622 -3.79647e-13 0)
(504.991 1.03261e-12 0)
(504.608 1.58005e-12 0)
(504.562 1.02009e-12 0)
(504.567 8.91233e-13 0)
(504.577 4.99917e-13 0)
(504.603 6.4967e-14 0)
(504.699 -4.01896e-13 0)
(504.982 -6.34937e-13 0)
(505.301 -6.87152e-13 0)
(504.959 -9.02336e-13 0)
(491.949 -1.19736e-12 0)
(341.251 1.18152e-12 0)
(32.8466 2.84084e-13 0)
(0.0387906 1.22965e-13 0)
(2.19856e-07 1.19983e-13 0)
(8.9103e-13 1.24222e-13 0)
(1.76945e-15 1.30242e-13 0)
(4.95436e-14 1.29076e-13 0)
(-3.12832e-15 1.37224e-13 0)
(-6.71406e-14 1.81958e-13 0)
(-4.21032e-14 1.72201e-13 0)
(-6.89241e-15 1.39e-13 0)
(4.47596e-15 1.58912e-13 0)
(4.48889e-14 1.59001e-13 0)
(1.06782e-13 1.21426e-13 0)
(4.49779e-14 9.43456e-14 0)
(2.96457e-14 7.92242e-14 0)
(-4.99595e-14 5.05363e-14 0)
(-1.27673e-13 2.69961e-15 0)
(-9.90599e-14 1.5775e-14 0)
(-1.56863e-13 3.62027e-14 0)
(-1.79657e-13 -1.55166e-14 0)
(-1.72064e-13 -4.46057e-14 0)
(-2.5956e-13 -7.14529e-14 0)
(-3.91136e-13 -4.66589e-14 0)
(-4.76264e-13 -3.57513e-14 0)
(-4.18777e-13 5.15175e-14 0)
(-2.98396e-13 1.17148e-13 0)
(-2.8429e-13 1.08526e-13 0)
(-4.20409e-13 9.47469e-14 0)
(-3.78887e-13 7.53968e-14 0)
(-4.38567e-13 1.43416e-13 0)
(-3.59056e-13 1.12555e-13 0)
(-3.33629e-13 1.28696e-13 0)
(-3.6374e-13 1.50659e-13 0)
(-3.99579e-13 1.27584e-13 0)
(-4.16218e-13 1.21975e-13 0)
(-3.77065e-13 1.19853e-13 0)
(-2.85521e-13 1.40901e-13 0)
(-3.71463e-13 1.50406e-13 0)
(-3.84963e-13 1.94711e-13 0)
(-3.12189e-13 2.29146e-13 0)
(-3.18351e-13 2.50169e-13 0)
(-2.57107e-13 1.90438e-13 0)
(-2.6287e-13 9.82073e-14 0)
(-2.11292e-13 4.17003e-14 0)
(-1.14052e-13 5.86927e-14 0)
(-5.06291e-14 3.94682e-14 0)
(-1.3891e-13 4.46365e-14 0)
(-1.65897e-13 1.81395e-14 0)
(-1.5448e-13 -1.82474e-15 0)
(-1.97782e-13 1.91735e-14 0)
(-1.24292e-13 5.03515e-14 0)
(-9.83596e-14 3.72941e-14 0)
(-6.73077e-14 9.08301e-14 0)
(3.24448e-14 5.54245e-14 0)
(3.79875e-14 3.17135e-14 0)
(3.87835e-15 7.67608e-14 0)
(5.30594e-14 1.37605e-13 0)
(4.31739e-14 2.35619e-13 0)
(1.5034e-13 2.49806e-13 0)
(2.52687e-13 3.14542e-13 0)
(3.31682e-13 3.04917e-13 0)
(3.63999e-13 3.27382e-13 0)
(4.14209e-13 2.5489e-13 0)
(4.26182e-13 1.72608e-13 0)
(5.32056e-13 9.51959e-14 0)
(6.14128e-13 6.64305e-14 0)
(7.18442e-13 5.55432e-14 0)
(8.0113e-13 5.76968e-14 0)
(7.88906e-13 8.17408e-14 0)
(8.66387e-13 1.68314e-14 0)
(1.04493e-12 -5.35698e-14 0)
(1.09204e-12 -1.10097e-13 0)
(500 3.05325e-15 0)
(500 -7.33396e-14 0)
(500 3.10692e-16 0)
(500 6.92649e-13 0)
(500 -3.2603e-12 0)
(499.999 -3.19959e-11 0)
(499.994 5.09532e-10 0)
(499.968 -3.07425e-09 0)
(499.861 8.91754e-09 0)
(499.533 -6.64386e-09 0)
(498.934 -2.04164e-08 0)
(498.59 7.89166e-09 0)
(498.609 1.35353e-07 0)
(498.844 -9.84262e-06 0)
(499.467 3.47328e-05 0)
(500.445 3.02812e-05 0)
(501.552 -0.000236929 0)
(502.539 0.000165902 0)
(503.278 0.000275178 0)
(503.78 -0.000206654 0)
(504.12 -0.000280764 0)
(504.365 5.57558e-05 0)
(504.554 0.000257096 0)
(504.707 5.88093e-05 0)
(504.83 -0.000109604 0)
(504.931 -9.28304e-05 0)
(505.013 -4.58523e-05 0)
(505.081 6.19849e-05 0)
(505.138 9.24359e-05 0)
(505.186 1.95893e-05 0)
(505.229 -0.000122142 0)
(505.268 -1.22989e-05 0)
(505.302 5.88586e-05 0)
(505.322 -8.1361e-06 0)
(505.326 -2.17333e-06 0)
(505.325 -4.36971e-07 0)
(505.322 1.28299e-06 0)
(505.314 2.13183e-06 0)
(505.298 1.66332e-06 0)
(505.277 5.35589e-07 0)
(505.255 -7.0493e-07 0)
(505.233 -1.43947e-06 0)
(505.216 -9.5019e-07 0)
(505.201 -9.86861e-08 0)
(505.188 3.33746e-07 0)
(505.176 3.20421e-07 0)
(505.164 2.5708e-07 0)
(505.154 1.79496e-07 0)
(505.145 1.47439e-07 0)
(505.138 3.03598e-07 0)
(505.132 3.13089e-07 0)
(505.128 1.10069e-07 0)
(505.124 1.53801e-08 0)
(505.12 -1.78789e-08 0)
(505.118 -9.27726e-08 0)
(505.116 -2.83227e-07 0)
(505.115 -5.03616e-08 0)
(505.113 -1.20292e-07 0)
(505.11 -2.77093e-07 0)
(505.107 3.69776e-07 0)
(505.107 1.53367e-07 0)
(505.107 1.22546e-07 0)
(505.108 1.01463e-07 0)
(505.112 5.94061e-08 0)
(505.118 -2.31288e-09 0)
(505.126 -4.81563e-08 0)
(505.134 -7.43665e-08 0)
(505.143 -5.71752e-08 0)
(505.152 -5.45556e-08 0)
(505.161 -2.54328e-08 0)
(505.17 1.71603e-08 0)
(505.177 1.69011e-08 0)
(505.184 1.8056e-09 0)
(505.189 3.89194e-08 0)
(505.194 -3.66603e-08 0)
(505.198 -1.00668e-08 0)
(505.203 -1.88374e-07 0)
(505.207 3.62887e-08 0)
(505.207 1.0358e-07 0)
(505.207 9.895e-08 0)
(505.205 8.15883e-08 0)
(505.201 2.51808e-08 0)
(505.195 -4.97682e-08 0)
(505.187 -8.45243e-08 0)
(505.18 -6.42455e-08 0)
(505.174 -1.19519e-08 0)
(505.169 2.34668e-08 0)
(505.165 2.37721e-08 0)
(505.162 9.69524e-09 0)
(505.158 -2.6871e-09 0)
(505.154 -3.80552e-09 0)
(505.152 -3.58029e-10 0)
(505.149 2.6255e-09 0)
(505.147 6.07235e-09 0)
(505.145 8.9435e-09 0)
(505.143 8.21604e-09 0)
(505.141 5.78433e-09 0)
(505.139 4.99833e-09 0)
(505.137 1.48415e-09 0)
(505.134 -4.45129e-09 0)
(505.131 -8.34836e-09 0)
(505.126 -1.23916e-08 0)
(505.118 -1.22989e-08 0)
(505.107 3.72483e-09 0)
(505.101 3.39207e-09 0)
(505.102 2.50965e-09 0)
(505.105 1.61977e-09 0)
(505.115 -3.04495e-10 0)
(505.129 3.88609e-09 0)
(505.143 -2.1973e-09 0)
(505.153 -6.81948e-09 0)
(505.159 9.83363e-10 0)
(505.163 8.29554e-10 0)
(505.166 -1.29335e-09 0)
(505.17 -2.14307e-10 0)
(505.174 1.5528e-09 0)
(505.179 9.95691e-10 0)
(505.185 6.37592e-10 0)
(505.19 -1.17439e-09 0)
(505.194 -2.59109e-09 0)
(505.197 -2.06466e-09 0)
(505.2 1.01902e-10 0)
(505.203 2.41174e-09 0)
(505.204 2.95178e-09 0)
(505.203 -1.10525e-10 0)
(505.202 -1.16237e-09 0)
(505.2 -1.39448e-09 0)
(505.195 -7.93783e-10 0)
(505.189 7.03765e-10 0)
(505.182 1.29044e-09 0)
(505.177 9.43487e-10 0)
(505.172 5.6198e-10 0)
(505.168 -1.3453e-09 0)
(505.163 -1.73625e-09 0)
(505.158 -6.13168e-10 0)
(505.155 2.42104e-11 0)
(505.153 8.34991e-10 0)
(505.151 9.81543e-10 0)
(505.149 7.74403e-10 0)
(505.147 2.511e-10 0)
(505.146 -3.91123e-10 0)
(505.145 -5.24491e-10 0)
(505.143 -1.74202e-10 0)
(505.142 3.22421e-11 0)
(505.139 7.21901e-11 0)
(505.138 4.01266e-11 0)
(505.137 -5.09186e-11 0)
(505.135 -1.81455e-10 0)
(505.13 -2.90013e-10 0)
(505.124 -3.11834e-10 0)
(505.115 -1.70208e-10 0)
(505.106 1.07718e-10 0)
(505.104 3.57466e-10 0)
(505.044 3.9037e-10 0)
(505.171 1.83881e-10 0)
(505.519 -1.89739e-10 0)
(505.12 -1.80745e-10 0)
(504.998 -1.07339e-10 0)
(504.992 -8.49016e-11 0)
(504.984 -3.08386e-11 0)
(504.978 4.59849e-11 0)
(504.981 1.27703e-10 0)
(504.957 2.01374e-10 0)
(504.897 1.94215e-10 0)
(505.184 1.08259e-10 0)
(505.519 1.84288e-11 0)
(505.585 -1.55616e-11 0)
(505.6 -3.49888e-11 0)
(505.582 -5.83516e-11 0)
(505.481 -6.88154e-11 0)
(505.287 -6.48538e-11 0)
(505.108 -5.01441e-11 0)
(505.012 -2.43052e-11 0)
(504.913 3.87285e-12 0)
(504.869 1.15343e-11 0)
(504.864 1.29286e-11 0)
(504.861 1.44732e-11 0)
(504.87 1.52397e-11 0)
(504.911 1.24007e-11 0)
(505.093 6.65952e-12 0)
(505.542 4.3451e-12 0)
(505.812 5.18105e-12 0)
(505.767 5.51333e-12 0)
(505.701 5.84684e-12 0)
(505.577 4.45982e-12 0)
(505.325 7.72824e-13 0)
(505.023 -5.67839e-12 0)
(504.827 -1.11096e-11 0)
(504.731 -1.12756e-11 0)
(504.679 -5.00628e-12 0)
(504.716 -2.77728e-12 0)
(504.742 -7.61575e-13 0)
(504.766 1.65982e-12 0)
(504.825 3.11499e-12 0)
(505.019 4.58773e-12 0)
(505.472 3.06438e-12 0)
(505.865 1.02288e-12 0)
(505.89 9.03878e-13 0)
(505.802 8.12677e-13 0)
(505.692 3.01894e-13 0)
(505.397 -4.07397e-13 0)
(504.882 -1.38637e-12 0)
(504.644 -1.85221e-12 0)
(504.588 -1.07917e-12 0)
(504.574 -8.29463e-13 0)
(504.554 1.6693e-14 0)
(504.621 6.2152e-13 0)
(504.699 1.13531e-12 0)
(504.787 1.25233e-12 0)
(505.007 7.43756e-13 0)
(505.513 1.77895e-13 0)
(505.934 -5.77328e-13 0)
(506.025 -7.59224e-13 0)
(505.972 -6.86272e-13 0)
(505.891 -8.31325e-13 0)
(505.622 -2.23066e-13 0)
(504.991 5.36838e-13 0)
(504.608 1.19115e-12 0)
(504.562 1.02415e-12 0)
(504.567 9.49705e-13 0)
(504.577 3.67476e-13 0)
(504.603 -3.69883e-13 0)
(504.699 -8.04826e-13 0)
(504.982 -1.15556e-12 0)
(505.301 -5.38301e-13 0)
(504.959 -1.22907e-13 0)
(491.949 2.00965e-13 0)
(341.251 3.39992e-13 0)
(32.8466 -1.56024e-13 0)
(0.0387906 8.36013e-14 0)
(2.19856e-07 5.4457e-14 0)
(8.7855e-13 8.82612e-14 0)
(3.24394e-14 1.10406e-13 0)
(1.12017e-13 8.61699e-14 0)
(5.38669e-14 8.71958e-14 0)
(-4.82508e-14 6.08758e-14 0)
(-5.4603e-15 9.79482e-14 0)
(-5.17992e-14 1.25232e-13 0)
(-6.91896e-15 1.03337e-13 0)
(1.58209e-14 1.08278e-13 0)
(4.67645e-14 3.74965e-14 0)
(4.95968e-14 3.0905e-14 0)
(-4.89303e-14 -1.49372e-15 0)
(-1.67482e-13 9.28155e-16 0)
(-1.88892e-13 -8.06136e-14 0)
(-4.27045e-14 -8.7642e-14 0)
(-1.72851e-13 -1.11382e-13 0)
(-1.59136e-13 -1.18963e-13 0)
(-1.78903e-13 -1.2216e-13 0)
(-3.14176e-13 -1.15209e-13 0)
(-4.03919e-13 -1.18103e-13 0)
(-3.5661e-13 -1.13114e-13 0)
(-3.48946e-13 -3.44515e-14 0)
(-3.13636e-13 -5.8374e-14 0)
(-3.42135e-13 -2.994e-14 0)
(-4.07298e-13 -3.71252e-14 0)
(-2.806e-13 6.97853e-15 0)
(-2.70588e-13 8.71144e-14 0)