/*--------------------------------*- C++ -*----------------------------------*\
| =========                 |                                                 |
| \\      /  F ield         | OpenFOAM: The Open Source CFD Toolbox           |
|  \\    /   O peration     | Version:  2306                                  |
|   \\  /    A nd           | Website:  www.openfoam.com                      |
|    \\/     M anipulation  |                                                 |
\*---------------------------------------------------------------------------*/
FoamFile
{
    version     2.0;
    format      ascii;
    arch        "LSB;label=32;scalar=64";
    class       volVectorField;
    location    "0.01";
    object      U;
}
// * * * * * * * * * * * * * * * * * * * * * * * * * * * * * * * * * * * * * //

dimensions      [0 1 -1 0 0 0 0];

internalField   nonuniform List<vector> 
6000
(
(-1648.53 0.00253612 0)
(-343.831 0.00128936 0)
(125.535 -0.0049652 0)
(116.575 -0.00474665 0)
(116.87 -0.00420052 0)
(116.685 -0.00467627 0)
(117.034 -0.00559346 0)
(117.344 -0.00956673 0)
(117.691 -0.0130122 0)
(118.035 -0.0100316 0)
(118.385 -0.00335153 0)
(118.74 0.00380266 0)
(119.099 0.0106924 0)
(119.46 0.0140372 0)
(119.821 0.0140123 0)
(120.186 0.0123241 0)
(120.559 0.0105581 0)
(120.947 0.00964517 0)
(121.356 0.0088997 0)
(121.793 0.00813296 0)
(122.262 0.00673984 0)
(122.748 0.00512979 0)
(123.204 0.00334859 0)
(123.562 0.00229606 0)
(123.829 0.0019722 0)
(124.057 0.00173184 0)
(124.4 0.0016651 0)
(124.773 0.000461841 0)
(125.131 -0.000280482 0)
(125.747 -0.000202146 0)
(126.272 -0.000200254 0)
(126.713 0.00019535 0)
(127.232 0.000154394 0)
(127.764 5.52028e-05 0)
(128.36 2.47399e-05 0)
(128.963 3.61298e-05 0)
(129.546 -0.000155018 0)
(130.132 -0.000434911 0)
(130.764 -0.000595181 0)
(131.411 -0.000375556 0)
(132.083 -0.000159163 0)
(132.787 -7.04386e-05 0)
(133.508 -6.15347e-05 0)
(134.259 -3.45576e-05 0)
(135.05 4.54292e-06 0)
(135.882 2.47633e-05 0)
(136.752 1.33546e-05 0)
(137.661 -8.85875e-06 0)
(138.606 -1.88822e-05 0)
(139.587 -9.49274e-06 0)
(140.607 -2.72965e-06 0)
(141.666 -7.79584e-07 0)
(142.769 -1.2174e-07 0)
(143.92 8.29523e-07 0)
(145.124 6.13271e-07 0)
(146.385 -2.25435e-07 0)
(147.704 -5.53681e-07 0)
(149.079 -2.42895e-07 0)
(150.509 -3.89427e-08 0)
(151.989 4.1031e-09 0)
(153.519 2.58687e-08 0)
(155.101 2.40459e-08 0)
(156.743 -3.09913e-10 0)
(158.462 -1.52425e-08 0)
(160.268 -8.13173e-09 0)
(162.116 -1.29991e-09 0)
(163.921 6.79177e-10 0)
(165.775 9.32713e-10 0)
(168.253 6.55363e-10 0)
(171.942 2.9253e-12 0)
(174.085 -1.86523e-10 0)
(173.726 -6.2829e-11 0)
(168.291 -2.74512e-11 0)
(137.031 5.16582e-11 0)
(55.9963 4.07039e-11 0)
(4.3959 3.10661e-12 0)
(0.0330872 8.72785e-14 0)
(1.46501e-05 -6.96619e-14 0)
(4.00854e-10 -8.33723e-14 0)
(-2.08298e-13 6.05346e-14 0)
(-1.30877e-13 2.36186e-15 0)
(-1.70884e-13 -1.03402e-13 0)
(-6.0781e-14 -1.38096e-13 0)
(2.02594e-14 -1.0656e-13 0)
(1.13736e-13 -1.49914e-13 0)
(5.30386e-13 -1.60358e-13 0)
(6.22988e-13 -1.93116e-13 0)
(3.41335e-13 -1.8473e-13 0)
(1.99231e-13 -2.08613e-13 0)
(3.59329e-13 -7.90692e-14 0)
(5.23209e-13 -4.26648e-14 0)
(5.40017e-13 -6.42353e-15 0)
(3.63164e-13 -1.50004e-15 0)
(3.34662e-13 5.27156e-14 0)
(3.83625e-13 6.61052e-14 0)
(3.79099e-13 1.03511e-13 0)
(6.95094e-13 1.14758e-13 0)
(3.68427e-13 1.2759e-13 0)
(-5.35087e-14 1.17809e-13 0)
(-6.10791e-14 2.84947e-13 0)
(1.13219e-13 2.99244e-13 0)
(-1.51474e-15 1.71457e-13 0)
(-9.35593e-14 1.69744e-13 0)
(-6.63614e-15 1.12854e-13 0)
(-2.0149e-14 7.66179e-15 0)
(8.73534e-14 1.64871e-14 0)
(2.23389e-13 -6.45774e-14 0)
(3.2951e-13 -5.43613e-14 0)
(2.77665e-13 -1.20878e-13 0)
(-1.21187e-13 2.51229e-14 0)
(-4.2681e-13 8.15036e-14 0)
(-5.52089e-13 1.79634e-13 0)
(-5.51672e-13 1.0819e-13 0)
(-5.89944e-13 7.82659e-15 0)
(-3.00021e-13 -4.15152e-14 0)
(-2.98254e-13 -1.54525e-13 0)
(-2.156e-13 -2.96653e-14 0)
(1.11149e-14 -1.06028e-14 0)
(1.20887e-13 1.65273e-13 0)
(3.80333e-13 9.51929e-14 0)
(7.28682e-13 4.2816e-14 0)
(7.36325e-13 -1.71147e-14 0)
(7.00746e-13 -9.67594e-14 0)
(5.48614e-13 -1.55e-13 0)
(3.18268e-13 -6.33439e-14 0)
(3.62744e-14 -7.39342e-14 0)
(-1.12295e-13 1.33166e-14 0)
(8.3468e-14 -2.95802e-14 0)
(6.6434e-14 5.35923e-14 0)
(3.97955e-14 3.03419e-16 0)
(-1.34243e-13 -4.25207e-14 0)
(-1.83091e-13 -9.22919e-14 0)
(-5.62697e-14 -1.04984e-13 0)
(8.19779e-14 -1.02002e-14 0)
(3.18982e-13 -4.98142e-14 0)
(3.74852e-13 -7.40623e-15 0)
(1.84931e-13 -2.88248e-14 0)
(2.14692e-15 -1.37216e-15 0)
(-3.94112e-14 -1.56281e-14 0)
(-5.02453e-14 1.07385e-15 0)
(2.52774e-13 -1.55535e-14 0)
(3.0962e-13 -1.99286e-14 0)
(8.13627e-15 -3.12452e-14 0)
(6.74559e-14 -1.14122e-14 0)
(1.19895e-13 -2.06617e-14 0)
(-1.16569e-13 -3.8664e-14 0)
(-1.66544e-13 3.44865e-14 0)
(-3.50203e-13 1.36923e-14 0)
(-6.09571e-13 6.21889e-14 0)
(-4.48248e-13 3.45316e-14 0)
(-1.09403e-13 4.97422e-14 0)
(-7.93348e-14 -1.87897e-14 0)
(-1.43558e-13 1.41442e-14 0)
(-1.95963e-13 -4.72607e-14 0)
(-4.69109e-13 -6.26138e-14 0)
(-4.69644e-13 1.22182e-14 0)
(-9.60416e-14 6.15082e-17 0)
(-1.58262e-13 -6.18445e-14 0)
(-9.01187e-14 -3.50357e-15 0)
(6.75928e-15 -1.8857e-14 0)
(1.03732e-13 1.09488e-16 0)
(1.30172e-13 -7.32569e-15 0)
(-1.81534e-13 3.84052e-14 0)
(-2.98502e-13 7.92992e-14 0)
(-2.82432e-13 4.33752e-14 0)
(-3.11774e-13 2.36783e-14 0)
(-1.29798e-13 3.18622e-14 0)
(2.48838e-13 2.69795e-14 0)
(3.19328e-13 -7.03392e-14 0)
(5.32522e-13 -5.54982e-14 0)
(4.86707e-13 2.78929e-15 0)
(2.24486e-13 5.5339e-14 0)
(4.44935e-14 2.7349e-14 0)
(-5.29106e-14 9.59296e-14 0)
(-3.18024e-13 7.12812e-14 0)
(-3.11966e-13 1.13826e-13 0)
(-2.41783e-14 1.59534e-13 0)
(-7.68501e-14 8.77569e-14 0)
(-7.49477e-14 1.13999e-13 0)
(1.64931e-13 9.21459e-14 0)
(3.57872e-13 1.60451e-13 0)
(1.20622e-13 9.91886e-14 0)
(8.54565e-14 6.06767e-14 0)
(2.37602e-13 -1.58768e-15 0)
(1.16126e-13 -9.57427e-14 0)
(-2.10284e-13 -1.28773e-13 0)
(-2.58103e-13 -1.363e-13 0)
(-2.72251e-13 -9.7908e-14 0)
(-3.26996e-13 -9.2966e-14 0)
(-2.88256e-13 -5.52541e-14 0)
(-1.74449e-13 1.09933e-13 0)
(1.77767e-13 7.27323e-14 0)
(4.39178e-13 1.56919e-15 0)
(3.17354e-13 -4.50747e-14 0)
(1.49602e-13 -1.40999e-13 0)
(-6.18141e-14 -8.34112e-14 0)
(-3.32846e-13 -8.32465e-14 0)
(-1.62436e-13 -6.76892e-14 0)
(1.99626e-13 -9.1857e-14 0)
(8.85435e-15 -8.45883e-14 0)
(-3.36908e-13 -7.25422e-14 0)
(-5.52748e-13 -1.40876e-14 0)
(-6.56916e-13 3.21887e-14 0)
(-4.40143e-13 2.6787e-14 0)
(-4.31232e-13 -2.14955e-14 0)
(-6.26775e-13 -3.29289e-14 0)
(-3.69743e-13 1.8452e-14 0)
(-2.1432e-13 1.02284e-14 0)
(-2.65545e-13 3.18715e-14 0)
(2.2126e-14 3.32103e-14 0)
(1.22158e-13 5.61717e-15 0)
(3.05078e-13 -2.24149e-14 0)
(4.26941e-13 -4.76059e-14 0)
(5.55267e-13 -1.40463e-13 0)
(2.75498e-13 -6.4609e-14 0)
(-1.12881e-13 -2.35756e-14 0)
(3.98896e-14 1.29781e-14 0)
(3.50512e-13 2.5364e-14 0)
(5.62803e-13 8.93519e-14 0)
(4.20424e-13 2.5491e-14 0)
(2.97977e-13 3.95514e-14 0)
(3.68541e-13 4.65098e-14 0)
(4.17959e-13 -5.1843e-14 0)
(2.72347e-13 -1.06238e-13 0)
(4.84341e-13 -9.86761e-14 0)
(7.4768e-13 -1.04102e-13 0)
(5.49673e-13 -1.55689e-13 0)
(3.26849e-13 -2.7334e-13 0)
(1.19289e-14 -1.63651e-13 0)
(-3.20447e-14 -8.99922e-14 0)
(-3.23594e-14 -1.45123e-13 0)
(7.51114e-14 -6.67797e-14 0)
(2.76003e-13 -7.12274e-14 0)
(4.74203e-14 -9.98467e-14 0)
(-1.92418e-13 -7.23387e-14 0)
(-3.00346e-13 -1.02968e-13 0)
(-1.97519e-13 -9.02411e-14 0)
(-3.37738e-14 -5.10537e-14 0)
(2.7219e-13 -1.32115e-13 0)
(3.48873e-13 -2.72344e-13 0)
(9.51506e-14 -3.44625e-13 0)
(1.49788e-13 -3.38346e-13 0)
(2.71411e-13 -3.80219e-13 0)
(1.42139e-13 -2.88149e-13 0)
(-9.48736e-14 -2.88738e-13 0)
(-4.33109e-14 -1.12258e-13 0)
(1.06041e-13 -9.80968e-14 0)
(1.94593e-13 3.61575e-14 0)
(3.67391e-13 -7.52413e-15 0)
(2.82448e-13 -1.15644e-14 0)
(1.10688e-13 -1.27326e-13 0)
(-1.98285e-13 -9.04265e-14 0)
(-3.98295e-13 -7.38327e-14 0)
(-4.06004e-13 -9.63347e-14 0)
(-2.66373e-13 -8.6854e-14 0)
(-2.56185e-14 4.09524e-14 0)
(2.5292e-13 7.59371e-14 0)
(4.64972e-13 1.54199e-13 0)
(5.13038e-13 6.57378e-14 0)
(4.56289e-13 -4.31249e-14 0)
(4.89404e-13 -3.18271e-14 0)
(2.81022e-13 -2.24331e-14 0)
(4.11549e-13 2.00948e-14 0)
(3.52953e-13 4.18694e-14 0)
(1.63011e-13 9.82469e-14 0)
(1.78218e-13 8.99458e-14 0)
(1.794e-14 2.75017e-14 0)
(-1.15751e-13 4.55427e-15 0)
(-1.63357e-13 4.18117e-15 0)
(-1.17294e-13 4.0432e-14 0)
(-1.27567e-13 1.34985e-13 0)
(8.15118e-14 1.63052e-13 0)
(1.0312e-13 9.48458e-14 0)
(-8.74101e-14 -2.84864e-14 0)
(-2.54135e-13 2.76897e-14 0)
(-3.60924e-13 -9.49403e-14 0)
(-5.8974e-13 -1.48257e-13 0)
(-6.1104e-13 -9.85407e-14 0)
(-6.05752e-13 -1.59857e-13 0)
(-7.37561e-13 -1.46923e-13 0)
(-7.64998e-13 -1.61343e-13 0)
(-8.81166e-13 -1.4395e-13 0)
(-1.04119e-12 -1.93381e-13 0)
(-9.26487e-13 -2.12559e-13 0)
(-7.46783e-13 -2.57387e-13 0)
(-8.20102e-13 -3.64432e-13 0)
(-9.51873e-13 -3.44802e-13 0)
(-1.03284e-12 -3.60047e-13 0)
(-1.19768e-12 -3.54368e-13 0)
(-1.16125e-12 -2.23721e-13 0)
(-9.66388e-13 -7.19304e-14 0)
(-9.87394e-13 -1.1819e-13 0)
(-1.12917e-12 -8.17925e-14 0)
(-1.35087e-12 -9.5185e-14 0)
(-1.63398e-12 -2.02562e-13 0)
(-1.87514e-12 -2.25402e-13 0)
(-2.04182e-12 -1.42684e-13 0)
(-2.40509e-12 -1.12118e-15 0)
(-2.80469e-12 8.28308e-14 0)
(-2.99736e-12 1.86855e-13 0)
(-1648.53 -1.72499e-05 0)
(-343.832 -0.000566301 0)
(125.533 0.00208616 0)
(116.572 0.00222272 0)
(116.866 0.00226869 0)
(116.682 0.00324939 0)
(117.03 0.00339573 0)
(117.339 0.00497063 0)
(117.681 0.00502841 0)
(118.022 0.0027357 0)
(118.371 -0.000835454 0)
(118.725 -0.00392713 0)
(119.084 -0.00535454 0)
(119.446 -0.00579965 0)
(119.811 -0.0058744 0)
(120.179 -0.00573411 0)
(120.554 -0.00549296 0)
(120.942 -0.00524613 0)
(121.351 -0.00514975 0)
(121.787 -0.00474932 0)
(122.255 -0.00386688 0)
(122.741 -0.00292865 0)
(123.198 -0.000723921 0)
(123.557 0.000983938 0)
(123.824 0.00250867 0)
(124.051 0.00389616 0)
(124.391 0.00275304 0)
(124.766 -0.00117786 0)
(125.128 -0.00247517 0)
(125.747 -0.00219446 0)
(126.272 -0.00132197 0)
(126.713 0.00102734 0)
(127.232 0.00248054 0)
(127.762 0.00328154 0)
(128.357 0.00278648 0)
(128.959 0.00144692 0)
(129.542 -0.000213993 0)
(130.13 -0.00152807 0)
(130.763 -0.00186518 0)
(131.412 -0.00144203 0)
(132.083 -0.000673431 0)
(132.787 -4.36736e-05 0)
(133.508 0.000345383 0)
(134.259 0.000488064 0)
(135.05 0.000413888 0)
(135.881 0.000224445 0)
(136.752 3.80426e-05 0)
(137.661 -6.76526e-05 0)
(138.606 -8.01506e-05 0)
(139.587 -4.85762e-05 0)
(140.607 -9.86095e-06 0)
(141.666 1.34299e-05 0)
(142.769 1.92382e-05 0)
(143.92 1.24826e-05 0)
(145.124 3.48914e-06 0)
(146.385 -1.68285e-06 0)
(147.704 -2.49453e-06 0)
(149.079 -1.35789e-06 0)
(150.509 -1.09204e-07 0)
(151.989 4.89632e-07 0)
(153.519 4.64027e-07 0)
(155.101 1.92694e-07 0)
(156.743 -8.12405e-09 0)
(158.462 -6.52596e-08 0)
(160.268 -4.25519e-08 0)
(162.116 -7.49047e-09 0)
(163.921 1.01535e-08 0)
(165.775 1.10498e-08 0)
(168.253 4.89071e-09 0)
(171.942 7.32888e-11 0)
(174.085 -1.0783e-09 0)
(173.726 -8.68668e-10 0)
(168.291 -2.09894e-10 0)
(137.031 2.69078e-10 0)
(55.9963 2.16828e-10 0)
(4.3959 2.02481e-11 0)
(0.0330872 6.6815e-14 0)
(1.46501e-05 2.35046e-16 0)
(4.0122e-10 -1.39046e-13 0)
(-1.59857e-13 1.72909e-15 0)
(-1.09656e-13 -4.03311e-14 0)
(-1.35014e-13 -1.07299e-13 0)
(-5.16977e-14 -6.02169e-14 0)
(-4.83257e-14 -3.12639e-14 0)
(3.5394e-14 -3.05038e-14 0)
(4.49811e-13 -7.35674e-14 0)
(5.46611e-13 -1.576e-13 0)
(2.84162e-13 -1.64848e-13 0)
(2.61435e-13 -1.4888e-13 0)
(3.98521e-13 -1.19845e-13 0)
(4.35412e-13 -8.82331e-14 0)
(5.22834e-13 -4.98924e-14 0)
(3.7877e-13 -2.28556e-14 0)
(4.0509e-13 1.45669e-13 0)
(3.83127e-13 1.38407e-13 0)
(4.86698e-13 1.73718e-13 0)
(7.06697e-13 1.38958e-13 0)
(3.50612e-13 7.87853e-14 0)
(1.28569e-13 8.98053e-14 0)
(1.0836e-13 1.78224e-13 0)
(-7.60154e-14 2.14666e-13 0)
(-1.03612e-13 1.88892e-13 0)
(-1.12408e-13 2.87507e-13 0)
(-1.68449e-13 2.50469e-13 0)
(-8.75241e-14 2.02441e-13 0)
(1.56368e-14 2.02459e-13 0)
(1.34601e-13 1.05725e-13 0)
(3.06098e-13 6.08462e-14 0)
(3.42539e-13 -9.92272e-16 0)
(7.32951e-14 6.42228e-14 0)
(-2.44246e-13 4.56013e-14 0)
(-4.73316e-13 1.72518e-13 0)
(-7.29165e-13 1.28157e-13 0)
(-7.12396e-13 1.28331e-13 0)
(-4.50471e-13 1.26556e-14 0)
(-2.4897e-13 -1.09213e-13 0)
(-7.03667e-14 2.60067e-14 0)
(1.94454e-13 4.71334e-14 0)
(2.32629e-13 1.92417e-13 0)
(2.61499e-13 2.26383e-13 0)
(5.78145e-13 1.8458e-13 0)
(5.52379e-13 1.00419e-13 0)
(5.56529e-13 7.05269e-14 0)
(5.37313e-13 -1.73812e-14 0)
(3.48467e-13 3.68287e-14 0)
(9.26349e-14 -1.51149e-14 0)
(-1.03108e-13 1.3142e-14 0)
(1.41715e-13 1.84949e-14 0)
(1.44665e-13 2.74591e-17 0)
(-4.58028e-14 6.46356e-14 0)
(-2.43088e-13 5.43798e-14 0)
(-2.23962e-13 -1.8e-14 0)
(-5.88264e-15 -4.50241e-14 0)
(1.04094e-13 8.59741e-14 0)
(4.0004e-13 -2.63753e-14 0)
(4.43669e-13 -8.52784e-14 0)
(1.70793e-13 -1.69973e-13 0)
(6.92748e-14 -1.3238e-13 0)
(-2.217e-14 -8.40546e-14 0)
(-4.77413e-14 -2.69089e-14 0)
(2.16687e-13 -2.40181e-14 0)
(2.92475e-13 -8.10476e-14 0)
(3.06717e-14 -1.4224e-13 0)
(5.90096e-14 -1.25846e-13 0)
(1.0403e-13 -1.86932e-13 0)
(-5.91087e-14 -1.83848e-13 0)
(-1.19738e-13 -1.14792e-13 0)
(-3.37271e-13 -1.28253e-13 0)
(-5.31654e-13 1.32656e-14 0)
(-5.41678e-13 -5.35928e-14 0)
(-1.80737e-13 -6.64884e-14 0)
(-6.81137e-14 -2.07054e-13 0)
(-1.02997e-13 -9.65192e-14 0)
(-1.99161e-13 -1.67747e-13 0)
(-4.24248e-13 -1.10735e-13 0)
(-3.89175e-13 5.09934e-14 0)
(-1.83583e-13 9.15828e-14 0)
(-1.17065e-13 -1.49641e-14 0)
(-3.32345e-15 1.74106e-14 0)
(-3.39818e-14 -3.35253e-14 0)
(6.94037e-14 -1.29622e-14 0)
(2.13865e-13 -1.55239e-13 0)
(-1.27158e-13 -9.32795e-14 0)
(-3.15323e-13 -3.06876e-14 0)
(-3.24925e-13 -3.32606e-14 0)
(-3.09628e-13 -5.45182e-14 0)
(-1.29674e-13 4.65327e-14 0)
(1.43509e-13 -7.97248e-14 0)
(2.52207e-13 -1.73385e-13 0)
(5.22013e-13 -1.50321e-13 0)
(5.03428e-13 -1.3244e-13 0)
(1.90213e-13 -4.47635e-14 0)
(1.00869e-13 -1.458e-13 0)
(2.55871e-14 -8.93355e-15 0)
(-2.53673e-13 -3.95975e-14 0)
(-2.32729e-13 4.59185e-14 0)
(-7.15101e-14 -1.68251e-14 0)
(-6.90938e-14 -7.1224e-14 0)
(7.69286e-14 4.02046e-14 0)
(3.02017e-13 1.12482e-13 0)
(3.49512e-13 1.31538e-13 0)
(2.40678e-14 9.23509e-14 0)
(-4.06105e-14 1.53615e-13 0)
(7.47401e-14 8.78114e-15 0)
(-2.69501e-14 -1.60721e-13 0)
(-2.38421e-13 -1.74192e-13 0)
(-1.95948e-13 -1.14392e-13 0)
(-2.60733e-13 -1.16901e-13 0)
(-2.98335e-13 -4.21901e-14 0)
(-1.17308e-13 -2.22016e-14 0)
(-5.76691e-14 5.69884e-14 0)
(6.72856e-14 1.19926e-13 0)
(2.24367e-13 -1.72308e-14 0)
(1.01761e-13 -1.40868e-13 0)
(6.55107e-14 -1.99083e-13 0)
(8.91784e-14 -2.4169e-13 0)
(-2.10155e-13 -2.08847e-13 0)
(-1.46913e-13 -1.13721e-13 0)
(1.28406e-13 -1.11062e-13 0)
(-2.81632e-14 -2.36126e-13 0)
(-2.90208e-13 -2.56027e-13 0)
(-5.15676e-13 -1.76636e-13 0)
(-6.02785e-13 -6.62279e-14 0)
(-4.52625e-13 -4.73566e-14 0)
(-5.01886e-13 -1.21868e-13 0)
(-6.06983e-13 -8.84693e-14 0)
(-2.74475e-13 -2.65999e-14 0)
(-1.19341e-13 -3.85448e-14 0)
(-1.73102e-13 1.16658e-13 0)
(2.22525e-14 1.04261e-13 0)
(6.02421e-14 6.53605e-14 0)
(1.86957e-13 5.09579e-14 0)
(3.38099e-13 -1.23255e-15 0)
(4.76846e-13 -8.6669e-14 0)
(3.47202e-13 -1.27385e-13 0)
(-3.76243e-14 -8.51122e-14 0)
(7.32788e-14 -1.72397e-14 0)
(3.96072e-13 -1.18642e-14 0)
(5.51343e-13 2.30642e-14 0)
(4.06958e-13 -8.65622e-14 0)
(3.3878e-13 -1.66542e-14 0)
(3.66588e-13 -3.46529e-14 0)
(3.34093e-13 -1.03488e-13 0)
(2.84542e-13 -7.84949e-14 0)
(5.41402e-13 -3.26923e-14 0)
(6.76025e-13 -5.71293e-14 0)
(4.37837e-13 -1.2623e-13 0)
(3.60768e-13 -1.8526e-13 0)
(1.65452e-13 -2.22263e-13 0)
(-3.7691e-14 -2.03295e-13 0)
(7.25095e-14 -1.81315e-13 0)
(2.48964e-13 -1.26167e-13 0)
(1.30332e-13 -1.83708e-13 0)
(-4.72549e-14 -2.74595e-13 0)
(-1.76702e-13 -1.41713e-13 0)
(-2.37948e-13 -5.50414e-14 0)
(-1.70075e-13 -6.85081e-14 0)
(-9.29911e-14 -9.00268e-14 0)
(1.41182e-13 -7.18216e-14 0)
(1.05298e-13 -2.11085e-13 0)
(-7.97832e-14 -3.83077e-13 0)
(9.22116e-14 -3.46885e-13 0)
(2.78235e-13 -3.82598e-13 0)
(1.84596e-13 -3.36138e-13 0)
(5.34384e-14 -2.18122e-13 0)
(8.18539e-14 -6.48369e-15 0)
(1.5922e-13 3.78718e-14 0)
(1.91255e-13 1.03789e-13 0)
(2.80739e-13 6.98074e-14 0)
(2.14445e-13 -2.83536e-14 0)
(5.33836e-14 -8.39946e-14 0)
(-8.10922e-14 -1.40948e-13 0)
(-3.14666e-13 -1.31962e-13 0)
(-3.44784e-13 -7.91514e-14 0)
(-1.46028e-13 -2.46423e-14 0)
(1.59874e-13 1.08955e-13 0)
(4.7313e-13 1.10349e-13 0)
(6.08965e-13 1.77635e-13 0)
(3.96519e-13 7.70663e-14 0)
(2.86723e-13 1.28922e-14 0)
(3.64083e-13 1.10647e-14 0)
(2.44837e-13 7.71557e-14 0)
(4.07195e-13 1.21398e-13 0)
(4.56876e-13 6.89817e-14 0)
(2.12056e-13 1.29661e-13 0)
(5.88364e-14 -7.16259e-14 0)
(-1.0325e-13 -1.43104e-14 0)
(-1.88291e-13 -4.02254e-14 0)
(-1.74697e-13 -7.7687e-14 0)
(-1.07281e-13 -8.98206e-14 0)
(-3.90404e-14 -4.8498e-14 0)
(9.39555e-14 2.78091e-14 0)
(1.01545e-14 5.49593e-14 0)
(-1.49152e-13 -2.32302e-14 0)
(-2.17231e-13 -1.43239e-13 0)
(-4.64689e-13 -9.02496e-14 0)
(-5.80356e-13 -1.51745e-13 0)
(-6.50529e-13 -1.62597e-13 0)
(-7.22948e-13 -1.83324e-13 0)
(-7.04361e-13 -2.6302e-13 0)
(-7.26287e-13 -2.49263e-13 0)
(-8.58886e-13 -2.41072e-13 0)
(-9.78958e-13 -2.60815e-13 0)
(-9.04011e-13 -2.89298e-13 0)
(-8.979e-13 -3.31833e-13 0)
(-8.70681e-13 -3.31096e-13 0)
(-9.00587e-13 -2.23851e-13 0)
(-1.01309e-12 -2.68127e-13 0)
(-1.08005e-12 -3.26555e-13 0)
(-9.93249e-13 -2.15425e-13 0)
(-8.97452e-13 -1.64883e-13 0)
(-1.06329e-12 -2.30472e-13 0)
(-1.1879e-12 -1.47295e-13 0)
(-1.44775e-12 -1.73844e-13 0)
(-1.73262e-12 -2.92451e-13 0)
(-1.90674e-12 -2.9744e-13 0)
(-2.0056e-12 -2.62473e-13 0)
(-2.25284e-12 -6.97141e-14 0)
(-2.48214e-12 1.33598e-13 0)
(-2.57264e-12 3.79624e-13 0)
(-1648.53 2.20725e-05 0)
(-343.832 -0.000428661 0)
(125.533 0.0044132 0)
(116.572 0.00434791 0)
(116.867 0.0040896 0)
(116.683 0.00536972 0)
(117.031 0.00585988 0)
(117.34 0.0107433 0)
(117.683 0.0127641 0)
(118.024 0.00797934 0)
(118.372 -0.000158684 0)
(118.727 -0.00725947 0)
(119.086 -0.0123693 0)
(119.449 -0.0142233 0)
(119.813 -0.0135876 0)
(120.18 -0.0118539 0)
(120.554 -0.0100084 0)
(120.941 -0.00852153 0)
(121.35 -0.00716279 0)
(121.787 -0.00563374 0)
(122.255 -0.00406497 0)
(122.742 -0.0027264 0)
(123.199 -1.16518e-05 0)
(123.559 0.00149521 0)
(123.825 0.0022744 0)
(124.05 0.00243226 0)
(124.388 0.000412157 0)
(124.762 -0.00345878 0)
(125.126 -0.00379924 0)
(125.748 -0.00315081 0)
(126.274 -0.00178508 0)
(126.716 0.00154764 0)
(127.233 0.00345788 0)
(127.762 0.00398263 0)
(128.355 0.00288964 0)
(128.956 0.000991085 0)
(129.54 -0.000862222 0)
(130.129 -0.00215927 0)
(130.763 -0.00253349 0)
(131.413 -0.00209913 0)
(132.085 -0.00113747 0)
(132.788 -0.000191207 0)
(133.508 0.000446465 0)
(134.259 0.000655323 0)
(135.049 0.000524709 0)
(135.881 0.000246291 0)
(136.752 8.32693e-06 0)
(137.661 -0.000110437 0)
(138.606 -0.000123768 0)
(139.588 -7.58449e-05 0)
(140.607 -1.86847e-05 0)
(141.666 1.61558e-05 0)
(142.769 2.30866e-05 0)
(143.92 1.37902e-05 0)
(145.124 3.08505e-06 0)
(146.385 -2.63769e-06 0)
(147.704 -3.53375e-06 0)
(149.079 -1.9453e-06 0)
(150.509 -2.68289e-07 0)
(151.989 4.91779e-07 0)
(153.519 4.73451e-07 0)
(155.101 1.82494e-07 0)
(156.743 -2.08567e-08 0)
(158.462 -7.81296e-08 0)
(160.268 -5.28582e-08 0)
(162.116 -1.18121e-08 0)
(163.921 8.17482e-09 0)
(165.775 9.30996e-09 0)
(168.253 3.74364e-09 0)
(171.942 -2.80169e-10 0)
(174.085 -1.08329e-09 0)
(173.726 -6.94483e-10 0)
(168.291 -7.03029e-11 0)
(137.031 3.17504e-10 0)
(55.9963 2.27098e-10 0)
(4.3959 2.11698e-11 0)
(0.0330872 -1.98218e-13 0)
(1.46501e-05 2.25422e-13 0)
(4.01138e-10 -4.53216e-15 0)
(-1.22935e-13 1.02827e-13 0)
(-8.89662e-14 1.13295e-13 0)
(-1.02392e-13 1.07936e-13 0)
(2.28517e-14 1.263e-13 0)
(7.62428e-16 1.16609e-13 0)
(3.19233e-14 1.84079e-13 0)
(2.74836e-13 1.571e-13 0)
(4.04877e-13 1.52251e-13 0)
(3.51983e-13 9.73494e-14 0)
(3.02314e-13 5.91779e-14 0)
(3.54114e-13 2.63785e-14 0)
(4.29712e-13 6.42709e-14 0)
(4.91964e-13 -2.15212e-14 0)
(5.72632e-13 7.54935e-15 0)
(5.40427e-13 9.01192e-14 0)
(3.73993e-13 1.08818e-13 0)
(4.2742e-13 2.13058e-13 0)
(6.11534e-13 2.4047e-13 0)
(4.455e-13 1.85313e-13 0)
(1.53092e-13 2.53587e-13 0)
(1.15523e-13 2.01384e-13 0)
(6.0801e-14 2.4135e-13 0)
(1.69106e-14 2.65744e-13 0)
(-4.73011e-14 3.53675e-13 0)
(-1.3015e-13 3.29387e-13 0)
(-6.19998e-14 3.25003e-13 0)
(7.85826e-15 3.66398e-13 0)
(2.20442e-14 2.87138e-13 0)
(3.65064e-14 2.24302e-13 0)
(2.3119e-13 2.20512e-13 0)
(1.03358e-13 1.83702e-13 0)
(-1.71363e-13 1.29556e-13 0)
(-4.66432e-13 1.28633e-13 0)
(-6.41908e-13 9.67888e-14 0)
(-7.64352e-13 1.08136e-13 0)
(-5.92706e-13 6.20933e-14 0)
(-2.48496e-13 1.30235e-13 0)
(3.03256e-14 2.09439e-13 0)
(2.4349e-13 1.94868e-13 0)
(3.89714e-13 1.85661e-13 0)
(4.01785e-13 2.58627e-13 0)
(5.525e-13 2.79937e-13 0)
(5.3034e-13 2.67011e-13 0)
(4.53212e-13 1.81021e-13 0)
(4.43436e-13 1.80191e-13 0)
(3.10233e-13 1.10058e-13 0)
(-3.82437e-14 7.10516e-14 0)
(-1.6519e-13 7.37456e-14 0)
(6.1022e-14 3.43315e-14 0)
(1.27641e-13 5.68423e-14 0)
(6.22773e-14 1.18402e-13 0)
(-2.20084e-13 1.52568e-13 0)
(-2.69778e-13 9.15438e-14 0)
(9.68778e-14 5.46926e-14 0)
(1.49018e-13 5.48386e-14 0)
(2.13491e-13 6.24562e-14 0)
(2.52494e-13 1.76631e-14 0)
(1.19791e-13 -3.8209e-15 0)
(1.28677e-13 1.19805e-14 0)
(1.2485e-13 5.02316e-14 0)
(6.75602e-14 6.66713e-14 0)
(1.76376e-13 1.33015e-13 0)
(1.26854e-13 -1.44224e-14 0)
(-3.07457e-14 -1.18719e-13 0)
(-2.82885e-14 -1.53662e-13 0)
(-8.83684e-15 -2.42706e-13 0)
(-1.55056e-15 -1.69975e-13 0)
(-3.31916e-14 -1.79999e-13 0)
(-2.58925e-13 -1.92446e-13 0)
(-4.56392e-13 -2.30764e-13 0)
(-5.49621e-13 -1.87158e-13 0)
(-3.36893e-13 -1.20039e-13 0)
(-8.5163e-14 -1.43226e-13 0)
(-1.22889e-13 -1.819e-13 0)
(-9.72349e-14 -2.05785e-13 0)
(-1.77771e-13 -1.97537e-13 0)
(-2.44246e-13 -1.7447e-13 0)
(-1.07257e-13 -9.57739e-14 0)
(-2.33386e-13 -2.83297e-14 0)
(-2.27254e-13 -5.17657e-14 0)
(-5.53757e-14 -1.47583e-13 0)
(-2.70346e-14 -1.73302e-13 0)
(4.9998e-14 -2.75699e-13 0)
(-1.2957e-13 -2.65773e-13 0)
(-2.76489e-13 -3.02338e-13 0)
(-2.97232e-13 -1.64335e-13 0)
(-1.89479e-13 -1.27402e-13 0)
(-1.86086e-13 -1.3403e-13 0)
(-3.44479e-14 -1.74051e-13 0)
(2.59885e-13 -1.47608e-13 0)
(5.09318e-13 -1.38726e-13 0)
(5.68565e-13 -1.84636e-13 0)
(1.99168e-13 -2.07679e-13 0)
(1.74683e-13 -2.8217e-13 0)
(1.59653e-13 -2.24923e-13 0)
(-1.87033e-13 -2.23954e-13 0)
(-3.14064e-13 -9.8255e-14 0)
(-1.27043e-13 -1.17275e-13 0)
(-2.46546e-14 6.47532e-14 0)
(2.38865e-13 3.55965e-16 0)
(4.00786e-13 4.99587e-14 0)
(4.37089e-13 -7.61033e-14 0)
(1.93272e-13 3.57112e-14 0)
(-1.4231e-13 9.87124e-14 0)
(-2.17033e-13 4.30063e-14 0)
(-1.29799e-13 -1.81119e-15 0)
(-1.37325e-13 -7.05811e-14 0)
(-2.49543e-13 -8.05206e-14 0)
(-1.97897e-13 -9.83587e-14 0)
(-1.78992e-13 -8.49345e-14 0)
(-1.91942e-13 -8.10295e-14 0)
(-1.33298e-14 2.53794e-15 0)
(8.6305e-14 6.77803e-14 0)
(8.84535e-14 6.3387e-14 0)
(-4.24444e-14 -2.97936e-14 0)
(-5.32106e-14 -8.63965e-14 0)
(-1.35315e-14 -1.45339e-13 0)
(-7.71809e-14 -1.70708e-13 0)
(-9.36654e-14 -1.41697e-13 0)
(-4.26684e-14 -1.17222e-13 0)
(-1.07083e-13 -1.46392e-13 0)
(-2.67621e-13 -1.47151e-13 0)
(-3.7326e-13 -1.52787e-13 0)
(-4.65139e-13 -1.11482e-13 0)
(-5.05169e-13 -1.79559e-13 0)
(-4.94666e-13 -2.32805e-13 0)
(-5.17427e-13 -1.19892e-13 0)
(-2.42436e-13 -5.75235e-14 0)
(6.6034e-14 3.2454e-14 0)
(1.54287e-14 5.59874e-14 0)
(-8.1577e-15 1.01809e-13 0)
(6.55256e-14 1.83227e-13 0)
(1.55991e-13 2.01192e-13 0)
(2.18916e-13 1.78718e-13 0)
(2.99669e-13 1.87493e-13 0)
(2.52668e-13 8.58658e-14 0)
(7.14916e-14 5.85024e-14 0)
(9.81605e-14 4.17794e-14 0)
(3.23523e-13 8.01527e-14 0)
(4.24273e-13 -4.64108e-14 0)
(4.43874e-13 -5.82932e-14 0)
(3.56234e-13 -8.29784e-14 0)
(2.3752e-13 -1.16897e-13 0)
(3.67147e-13 -4.38567e-14 0)
(4.13848e-13 -3.99641e-14 0)
(5.95596e-13 -3.73556e-14 0)
(6.37192e-13 -1.05632e-13 0)
(4.65061e-13 -1.58889e-13 0)
(2.25107e-13 -1.75285e-13 0)
(1.1524e-14 -2.26729e-13 0)
(2.45747e-14 -2.79237e-13 0)
(1.25453e-13 -2.62903e-13 0)
(2.19168e-13 -2.99162e-13 0)
(6.25941e-14 -3.54621e-13 0)
(7.64614e-14 -3.48496e-13 0)
(2.07919e-14 -2.22786e-13 0)
(-1.9616e-13 -2.11746e-13 0)
(-2.07116e-13 -3.11855e-13 0)
(-3.46446e-14 -3.45867e-13 0)
(7.46673e-14 -3.14019e-13 0)
(-1.52843e-13 -4.42208e-13 0)
(-1.09645e-13 -4.00876e-13 0)
(7.38075e-14 -3.19597e-13 0)
(2.76735e-13 -2.67225e-13 0)
(3.70223e-13 -1.38713e-13 0)
(3.15313e-13 -8.86578e-15 0)
(2.26234e-13 -3.32682e-14 0)
(1.78862e-13 -1.4455e-14 0)
(1.41785e-13 -5.34498e-14 0)
(1.17507e-13 -3.32317e-14 0)
(3.30791e-14 -1.4173e-13 0)
(-9.5253e-14 -1.35654e-13 0)
(-1.22402e-13 -2.89988e-13 0)
(-2.10077e-13 -2.47485e-13 0)
(-2.38935e-13 -2.21315e-13 0)
(-2.84228e-14 -1.58491e-13 0)
(1.93782e-13 -1.44447e-13 0)
(3.92763e-13 -9.4547e-14 0)
(5.08814e-13 -1.04719e-13 0)
(3.54895e-13 -1.07901e-13 0)
(3.70678e-13 1.53772e-14 0)
(4.47858e-13 -2.17667e-14 0)
(3.90905e-13 -2.55979e-14 0)
(3.14883e-13 6.64727e-14 0)
(2.41103e-13 -1.06841e-13 0)
(-1.26852e-14 -1.35554e-13 0)
(-4.39525e-15 -2.58809e-13 0)
(6.05459e-15 -2.40885e-13 0)
(-2.25758e-13 -2.27882e-13 0)
(-2.34725e-13 -1.36735e-13 0)
(-2.02724e-13 -5.62184e-14 0)
(3.24284e-14 -1.36324e-13 0)
(2.26917e-13 -8.30383e-14 0)
(3.97366e-14 -1.06836e-14 0)
(-3.25105e-13 5.87799e-16 0)
(-2.55505e-13 -7.10171e-14 0)
(-3.15928e-13 -1.36358e-13 0)
(-6.45739e-13 -1.21893e-13 0)
(-7.16153e-13 -3.06013e-13 0)
(-8.01045e-13 -3.43118e-13 0)
(-7.84306e-13 -3.84152e-13 0)
(-6.9678e-13 -4.23492e-13 0)
(-8.44808e-13 -4.36028e-13 0)
(-1.00752e-12 -4.30831e-13 0)
(-9.27802e-13 -4.07888e-13 0)
(-8.32311e-13 -3.03968e-13 0)
(-7.50436e-13 -1.72497e-13 0)
(-9.29833e-13 -1.7581e-13 0)
(-1.16744e-12 -1.20701e-13 0)
(-1.10201e-12 -9.35386e-14 0)
(-1.01577e-12 -1.16718e-13 0)
(-9.56225e-13 -1.80602e-13 0)
(-9.42159e-13 -1.35236e-13 0)
(-1.15148e-12 -1.40796e-13 0)
(-1.56216e-12 -1.08568e-13 0)
(-1.82733e-12 -1.63889e-13 0)
(-1.82199e-12 -1.85326e-13 0)
(-1.8253e-12 -1.25143e-13 0)
(-1.92317e-12 -1.86569e-14 0)
(-2.07416e-12 7.07233e-14 0)
(-2.16254e-12 4.35931e-14 0)
(-1648.53 0.000373591 0)
(-343.831 -0.000758725 0)
(125.533 0.00607216 0)
(116.572 0.00594091 0)
(116.867 0.00554501 0)
(116.683 0.00716332 0)
(117.031 0.00796415 0)
(117.341 0.0161855 0)
(117.684 0.0209129 0)
(118.026 0.0149317 0)
(118.375 0.00271872 0)
(118.729 -0.00951397 0)
(119.089 -0.0173822 0)
(119.451 -0.0198651 0)
(119.815 -0.0187361 0)
(120.181 -0.0160842 0)
(120.554 -0.0133453 0)
(120.941 -0.011022 0)
(121.35 -0.00921525 0)
(121.788 -0.00767303 0)
(122.257 -0.00567529 0)
(122.745 -0.00377082 0)
(123.203 -0.000837134 0)
(123.562 0.000307309 0)
(123.827 0.000835124 0)
(124.049 0.000441391 0)
(124.384 -0.000839664 0)
(124.759 -0.00356875 0)
(125.127 -0.00304587 0)
(125.751 -0.00250148 0)
(126.278 -0.00146815 0)
(126.721 0.00109636 0)
(127.236 0.00266354 0)
(127.762 0.00314975 0)
(128.353 0.00246157 0)
(128.954 0.00109165 0)
(129.538 -0.000543487 0)
(130.127 -0.00195408 0)
(130.763 -0.0025652 0)
(131.414 -0.00234107 0)
(132.087 -0.00147897 0)
(132.789 -0.000481189 0)
(133.509 0.000300011 0)
(134.259 0.000656686 0)
(135.049 0.000622853 0)
(135.88 0.000355737 0)
(136.751 7.23094e-05 0)
(137.66 -9.85875e-05 0)
(138.606 -0.000140238 0)
(139.588 -9.93774e-05 0)
(140.607 -3.45321e-05 0)
(141.666 9.99755e-06 0)
(142.769 2.37148e-05 0)
(143.92 1.80242e-05 0)
(145.124 6.26921e-06 0)
(146.385 -1.50549e-06 0)
(147.704 -3.63689e-06 0)
(149.079 -2.55528e-06 0)
(150.509 -7.28472e-07 0)
(151.989 3.07531e-07 0)
(153.519 4.95473e-07 0)
(155.101 2.76858e-07 0)
(156.743 4.18771e-08 0)
(158.462 -5.81678e-08 0)
(160.268 -5.99863e-08 0)
(162.116 -2.41834e-08 0)
(163.921 3.09796e-10 0)
(165.775 6.78643e-09 0)
(168.253 5.41986e-09 0)
(171.942 1.4623e-09 0)
(174.085 -2.09505e-10 0)
(173.726 -1.82984e-10 0)
(168.291 -6.84677e-11 0)
(137.031 7.37198e-11 0)
(55.9963 5.60213e-11 0)
(4.3959 6.35125e-12 0)
(0.0330872 1.57867e-13 0)
(1.46501e-05 1.52377e-13 0)
(4.01464e-10 1.1169e-13 0)
(-2.63218e-14 2.5173e-13 0)
(-1.33744e-13 2.82556e-13 0)
(-1.93366e-13 2.00312e-13 0)
(-5.04936e-14 2.21479e-13 0)
(8.95517e-14 2.27903e-13 0)
(1.19858e-13 4.02235e-13 0)
(3.69161e-13 3.85843e-13 0)
(3.66092e-13 3.19807e-13 0)
(1.19884e-13 2.52574e-13 0)
(2.40462e-13 2.08203e-13 0)
(4.03209e-13 2.99547e-13 0)
(2.91859e-13 2.78696e-13 0)
(3.74113e-13 2.19926e-13 0)
(4.78972e-13 2.27355e-13 0)
(5.09538e-13 1.40184e-13 0)
(6.07004e-13 1.7147e-13 0)
(6.68438e-13 3.44656e-13 0)
(6.28083e-13 3.51662e-13 0)
(3.78122e-13 3.01675e-13 0)
(2.21987e-13 2.09513e-13 0)
(1.29763e-13 2.64944e-13 0)
(-5.58896e-14 2.62677e-13 0)
(8.30927e-15 3.29663e-13 0)
(-6.02604e-14 3.27248e-13 0)
(-1.91673e-13 2.96017e-13 0)
(-4.03699e-15 2.94895e-13 0)
(3.51121e-14 4.40489e-13 0)
(-9.47588e-14 3.86468e-13 0)
(1.20766e-13 3.47062e-13 0)
(2.45479e-13 2.33201e-13 0)
(3.98726e-14 1.51086e-13 0)
(-2.10602e-13 2.1344e-13 0)
(-4.31997e-13 1.89816e-13 0)
(-7.2052e-13 1.67114e-13 0)
(-7.52311e-13 9.70952e-14 0)
(-4.03986e-13 1.73362e-13 0)
(-1.418e-13 2.83636e-13 0)
(3.09224e-14 3.02405e-13 0)
(2.52914e-13 2.62919e-13 0)
(3.78545e-13 3.03972e-13 0)
(3.97876e-13 2.47873e-13 0)
(5.30511e-13 2.07313e-13 0)
(3.66743e-13 1.75737e-13 0)
(3.57452e-13 6.58444e-14 0)
(4.20538e-13 1.22499e-13 0)
(2.51984e-13 1.19399e-14 0)
(4.9337e-15 5.48127e-14 0)
(-2.01923e-13 6.42631e-14 0)
(7.13977e-14 5.40099e-14 0)
(1.71229e-13 9.11417e-14 0)
(3.37382e-14 9.08591e-14 0)
(-2.27339e-13 1.1433e-13 0)
(-3.6295e-13 9.54041e-14 0)
(-6.06157e-14 5.254e-14 0)
(1.83421e-13 -7.8161e-14 0)
(4.21051e-13 -3.41854e-14 0)
(3.63736e-13 5.36462e-14 0)
(1.70575e-13 1.63102e-14 0)
(1.29275e-13 8.29717e-14 0)
(1.82014e-14 1.32019e-13 0)
(4.43501e-14 1.10379e-13 0)
(9.32477e-14 8.20732e-14 0)
(-7.41277e-14 4.7071e-14 0)
(-1.95719e-13 -3.83078e-14 0)
(-1.22975e-13 -1.6098e-13 0)
(6.76538e-14 -1.79811e-13 0)
(1.03672e-14 -1.14309e-13 0)
(-1.63131e-13 -2.50348e-13 0)
(-4.13203e-13 -2.68872e-13 0)
(-4.25325e-13 -2.21995e-13 0)
(-4.2374e-13 -2.52814e-13 0)
(-1.9313e-13 -2.33752e-13 0)
(-1.73583e-13 -1.65768e-13 0)
(-2.16932e-13 -2.64853e-13 0)
(-1.97787e-13 -2.14077e-13 0)
(-2.89868e-13 -2.35675e-13 0)
(-1.57971e-13 -2.42118e-13 0)
(6.53874e-14 -2.76218e-13 0)
(-1.37609e-13 -2.22404e-13 0)
(-2.96132e-13 -1.65154e-13 0)
(-1.90479e-13 -1.69525e-13 0)