/*--------------------------------*- C++ -*----------------------------------*\
| =========                 |                                                 |
| \\      /  F ield         | OpenFOAM: The Open Source CFD Toolbox           |
|  \\    /   O peration     | Version:  2306                                  |
|   \\  /    A nd           | Website:  www.openfoam.com                      |
|    \\/     M anipulation  |                                                 |
\*---------------------------------------------------------------------------*/
FoamFile
{
    version     2.0;
    format      ascii;
    arch        "LSB;label=32;scalar=64";
    class       volVectorField;
    location    "0.01";
    object      U;
}
// * * * * * * * * * * * * * * * * * * * * * * * * * * * * * * * * * * * * * //

dimensions      [0 1 -1 0 0 0 0];

internalField   nonuniform List<vector> 
6000
(
(500 -5.51788e-15 0)
(500 -6.71236e-14 0)
(499.99 -1.1365e-13 0)
(499.903 -2.11799e-14 0)
(499.48 8.32961e-14 0)
(498.566 -1.15307e-13 0)
(498.179 8.74381e-14 0)
(498.327 4.33177e-12 0)
(499.016 -3.28832e-11 0)
(500.275 4.75583e-11 0)
(501.647 2.78432e-10 0)
(502.712 -2.36449e-10 0)
(503.407 -1.38035e-10 0)
(503.862 2.0904e-10 0)
(504.185 3.37665e-10 0)
(504.429 -1.17882e-10 0)
(504.617 1.7446e-11 0)
(504.762 2.55172e-10 0)
(504.878 5.41675e-10 0)
(504.971 -2.33245e-12 0)
(505.047 -8.7925e-12 0)
(505.11 1.70652e-10 0)
(505.163 -2.25081e-10 0)
(505.209 5.48561e-12 0)
(505.25 2.59266e-10 0)
(505.284 6.77596e-11 0)
(505.312 -1.01605e-10 0)
(505.328 3.06678e-10 0)
(505.329 3.39637e-11 0)
(505.328 1.14578e-11 0)
(505.32 -2.04189e-12 0)
(505.305 -6.62398e-12 0)
(505.284 -5.05186e-12 0)
(505.262 -2.36572e-12 0)
(505.241 7.76951e-13 0)
(505.222 8.18144e-13 0)
(505.207 -2.09091e-12 0)
(505.195 -2.89513e-12 0)
(505.182 -8.95839e-13 0)
(505.17 4.84776e-14 0)
(505.158 1.08387e-12 0)
(505.149 6.13057e-13 0)
(505.142 -4.01883e-13 0)
(505.136 -5.68656e-13 0)
(505.13 -1.04891e-12 0)
(505.125 4.09538e-13 0)
(505.122 -2.05301e-13 0)
(505.119 -2.20402e-13 0)
(505.117 -3.52162e-13 0)
(505.115 -4.09303e-13 0)
(505.114 -4.63493e-14 0)
(505.112 2.13081e-13 0)
(505.11 2.88295e-13 0)
(505.106 1.97288e-13 0)
(505.105 -2.88775e-15 0)
(505.106 -1.72288e-13 0)
(505.11 -2.2676e-13 0)
(505.116 -7.98285e-14 0)
(505.123 -1.22613e-13 0)
(505.13 4.13779e-14 0)
(505.139 2.13237e-13 0)
(505.148 8.6558e-14 0)
(505.157 -5.14092e-13 0)
(505.166 -6.34526e-13 0)
(505.174 -9.33744e-13 0)
(505.181 -8.6548e-13 0)
(505.188 -7.72379e-13 0)
(505.192 -6.24221e-13 0)
(505.196 3.9579e-13 0)
(505.201 6.80651e-13 0)
(505.204 7.10295e-13 0)
(505.208 8.49462e-13 0)
(505.209 1.05582e-12 0)
(505.207 1.21806e-12 0)
(505.202 1.44428e-12 0)
(505.197 1.38421e-12 0)
(505.203 5.67352e-13 0)
(505.215 9.94793e-13 0)
(504.8 2.26734e-12 0)
(505.218 -2.34934e-12 0)
(505.564 -3.88178e-12 0)
(505.463 -3.29546e-12 0)
(505.28 -1.68352e-12 0)
(505.183 -1.07927e-12 0)
(505.102 -7.25907e-13 0)
(505.021 -2.03172e-13 0)
(504.982 8.93005e-13 0)
(505.042 4.96155e-13 0)
(504.92 3.0214e-13 0)
(504.859 4.47386e-14 0)
(504.847 4.74351e-15 0)
(504.879 -6.2315e-14 0)
(505.109 1.42575e-13 0)
(505.393 3.7093e-13 0)
(505.491 3.95148e-13 0)
(505.58 5.96541e-14 0)
(505.619 1.8888e-13 0)
(505.528 -2.40069e-13 0)
(505.276 -6.64809e-13 0)
(504.938 -2.06074e-13 0)
(504.824 6.80354e-14 0)
(504.812 1.9402e-14 0)
(504.807 1.03665e-13 0)
(504.812 8.18927e-14 0)
(504.803 2.43026e-13 0)
(504.786 3.16205e-13 0)
(504.824 3.87626e-13 0)
(505.058 2.44567e-13 0)
(505.568 -1.6977e-13 0)
(505.771 -2.75814e-13 0)
(505.679 -7.64543e-14 0)
(501.834 -2.43209e-13 0)
(430.093 -6.79877e-13 0)
(123.97 -2.05554e-13 0)
(0.899137 1.07673e-13 0)
(3.53084e-05 8.45828e-15 0)
(8.11652e-11 3.56069e-14 0)
(1.29029e-13 6.02065e-14 0)
(1.78206e-13 9.18472e-14 0)
(1.67445e-13 2.40273e-14 0)
(1.09262e-13 7.29328e-15 0)
(9.17992e-14 -5.04247e-14 0)
(2.5956e-14 -7.72614e-14 0)
(-4.42824e-14 -3.5232e-14 0)
(-2.14989e-13 -2.26256e-15 0)
(-3.11944e-13 6.99752e-14 0)
(-1.80037e-13 7.52088e-14 0)
(-2.35042e-15 -9.84868e-15 0)
(9.95614e-14 -9.76473e-14 0)
(-1.22165e-13 -1.11862e-13 0)
(-1.46952e-13 -7.24596e-14 0)
(-1.27082e-13 -3.54371e-14 0)
(-9.7377e-14 -5.43547e-14 0)
(-1.87082e-13 -1.19634e-13 0)
(-3.14258e-13 -1.16091e-13 0)
(-3.60688e-13 -9.82352e-14 0)
(-4.12552e-13 -6.60067e-14 0)
(-4.92442e-13 -4.92631e-14 0)
(-4.40143e-13 -5.81371e-15 0)
(-2.92643e-13 -5.42795e-15 0)
(-2.4143e-13 -1.02849e-14 0)
(-3.47039e-13 -2.44342e-14 0)
(-2.9544e-13 -8.64415e-15 0)
(-2.57386e-13 9.81597e-15 0)
(-2.18004e-13 2.60091e-14 0)
(-7.96748e-14 3.31399e-14 0)
(-2.09051e-13 6.49397e-15 0)
(-3.14103e-13 -6.35796e-15 0)
(-4.41325e-13 3.78238e-14 0)
(-3.42644e-13 1.74675e-14 0)
(-8.37481e-14 2.54986e-14 0)
(-5.90573e-14 1.67533e-14 0)
(-8.05017e-14 3.8796e-14 0)
(2.45758e-14 4.98599e-14 0)
(1.01676e-13 5.1374e-14 0)
(9.49497e-15 3.84608e-14 0)
(-7.73202e-14 4.13066e-14 0)
(-8.16142e-14 2.96358e-15 0)
(-2.10757e-13 -2.06758e-14 0)
(-3.27796e-13 1.48867e-14 0)
(-1.96232e-13 7.56753e-15 0)
(-9.6513e-14 -4.56026e-14 0)
(-2.68958e-13 -4.6462e-14 0)
(-2.03501e-13 5.18678e-14 0)
(-1.24165e-13 5.70611e-14 0)
(2.42563e-16 7.99495e-14 0)
(1.7878e-13 1.13416e-13 0)
(1.64592e-13 1.07235e-13 0)
(1.90774e-13 1.25124e-13 0)
(1.30299e-13 6.37767e-14 0)
(1.87986e-14 -5.85789e-15 0)
(1.44655e-13 -5.92816e-14 0)
(7.5245e-14 -1.21768e-13 0)
(-2.78818e-14 -1.25981e-13 0)
(-1.50375e-14 -7.4118e-14 0)
(1.38608e-13 -1.81837e-14 0)
(7.0093e-14 -3.51069e-14 0)
(-1.24538e-14 -6.23843e-14 0)
(4.57313e-14 -6.14885e-14 0)
(5.16818e-14 -9.1647e-14 0)
(4.41974e-14 -8.77507e-14 0)
(2.73979e-14 -1.17318e-13 0)
(-6.40423e-14 -7.93935e-14 0)
(-2.16506e-13 -2.3106e-14 0)
(-2.1648e-13 7.32194e-15 0)
(-9.5486e-14 2.0817e-14 0)
(5.13024e-16 1.60628e-14 0)
(1.04931e-13 1.96084e-14 0)
(1.38109e-13 1.23561e-14 0)
(2.74273e-14 9.8961e-15 0)
(1.09403e-13 3.99994e-14 0)
(2.12582e-13 2.132e-14 0)
(3.02266e-13 1.00579e-14 0)
(3.20745e-13 1.86645e-14 0)
(2.56206e-13 2.3753e-14 0)
(2.2096e-13 1.08909e-14 0)
(3.32264e-13 -2.29254e-14 0)
(3.35458e-13 -1.00367e-13 0)
(2.51736e-13 -1.45385e-13 0)
(2.98388e-13 -1.79983e-13 0)
(3.42511e-13 -1.55768e-13 0)
(2.07782e-13 -1.58299e-13 0)
(2.24748e-13 -1.03391e-13 0)
(2.56806e-13 -4.30831e-14 0)
(1.80747e-13 -3.27361e-14 0)
(1.51267e-13 -1.58892e-15 0)
(1.44771e-13 -6.1526e-14 0)
(1.50947e-13 -4.64133e-14 0)
(2.56848e-13 -1.64828e-14 0)
(3.20195e-13 -8.72634e-15 0)
(2.03435e-13 -2.82571e-14 0)
(-7.47729e-15 -4.34485e-14 0)
(4.55648e-14 -2.85256e-14 0)
(6.55014e-14 -4.68404e-14 0)
(5.52539e-14 -1.96292e-14 0)
(-5.19993e-14 2.86153e-15 0)
(-2.29285e-13 8.90709e-15 0)
(-1.75523e-13 1.33637e-14 0)
(-1.24776e-13 -4.26185e-15 0)
(-2.5706e-13 -1.72947e-15 0)
(-1.34446e-13 -9.57574e-15 0)
(-2.92644e-14 -4.68563e-14 0)
(-4.75412e-14 -4.92067e-14 0)
(-3.78174e-14 5.84517e-15 0)
(1.41389e-13 3.36893e-14 0)
(3.44195e-14 5.61041e-15 0)
(-8.41709e-14 -1.11056e-14 0)
(-9.78604e-14 -2.11122e-14 0)
(-3.21602e-13 -1.42135e-14 0)
(-3.4065e-13 -2.70724e-14 0)
(-3.97235e-13 -3.32662e-14 0)
(-4.70393e-13 4.37725e-14 0)
(-4.28791e-13 4.89881e-14 0)
(-3.13955e-13 3.21965e-14 0)
(-1.73235e-13 3.67588e-14 0)
(-9.64785e-14 4.15603e-14 0)
(3.66152e-14 1.69605e-14 0)
(1.42255e-13 7.94709e-16 0)
(6.63853e-14 5.94025e-14 0)
(-9.74203e-14 1.19893e-13 0)
(-9.64053e-14 1.49054e-13 0)
(-2.03503e-14 1.38604e-13 0)
(2.71986e-14 1.53119e-13 0)
(-3.94087e-14 1.02977e-13 0)
(-9.80339e-14 9.48115e-14 0)
(-9.11649e-14 4.17603e-14 0)
(-2.44238e-13 2.36781e-14 0)
(-2.42453e-13 4.86703e-14 0)
(-1.0266e-13 4.02592e-14 0)
(-2.3104e-13 3.53264e-14 0)
(-2.31915e-13 3.37789e-14 0)
(-2.1278e-13 3.42444e-14 0)
(-1.58613e-13 3.20009e-15 0)
(9.33737e-15 2.26656e-14 0)
(1.93082e-13 -2.71498e-14 0)
(8.37629e-14 -1.06397e-15 0)
(-7.60598e-14 -1.74569e-14 0)
(-1.57716e-13 9.10027e-14 0)
(-4.36067e-14 9.43684e-14 0)
(4.45202e-15 1.67445e-13 0)
(4.6978e-14 1.15917e-13 0)
(8.52602e-14 6.39288e-14 0)
(4.09949e-14 3.90348e-14 0)
(-4.73988e-14 5.3276e-15 0)
(-1.61302e-15 3.89428e-15 0)
(-5.6134e-15 4.34088e-14 0)
(4.30852e-14 1.8344e-14 0)
(4.50783e-14 6.7363e-14 0)
(2.01868e-13 5.52605e-14 0)
(2.81125e-13 4.60204e-14 0)
(1.21057e-13 2.68008e-15 0)
(7.01817e-14 1.6435e-14 0)
(7.67619e-14 -2.79518e-14 0)
(1.81243e-15 -4.03221e-14 0)
(-2.31063e-15 -2.89935e-14 0)
(-3.48251e-14 -5.84642e-15 0)
(-1.40293e-13 -9.24302e-15 0)
(-7.19463e-14 3.42079e-14 0)
(1.11181e-14 2.97601e-14 0)
(-1.20364e-13 -2.08459e-14 0)
(-2.85573e-13 -3.92969e-14 0)
(-2.66487e-13 -2.45322e-14 0)
(-1.41116e-13 -4.22605e-14 0)
(-1.64125e-13 -9.99973e-14 0)
(-2.33056e-13 -4.29791e-14 0)
(-2.8901e-13 -7.36304e-14 0)
(-4.35996e-13 -3.32812e-14 0)
(-5.26763e-13 -8.08869e-15 0)
(-6.74009e-13 7.92574e-15 0)
(-6.2819e-13 4.75239e-14 0)
(-4.9813e-13 9.81648e-14 0)
(-4.02423e-13 7.87082e-14 0)
(-6.0411e-13 2.46168e-14 0)
(-6.9857e-13 1.18869e-13 0)
(-5.92659e-13 1.16155e-13 0)
(-6.08958e-13 1.27043e-13 0)
(-6.78062e-13 1.13667e-13 0)
(-5.82985e-13 1.31871e-13 0)
(-7.90416e-13 1.19676e-13 0)
(-9.2116e-13 1.8681e-13 0)
(500 -1.44743e-13 0)
(500 -3.041e-13 0)
(499.99 -2.69492e-13 0)
(499.903 2.76033e-14 0)
(499.48 3.17855e-13 0)
(498.566 -8.38531e-13 0)
(498.179 -8.97493e-14 0)
(498.327 -7.49362e-12 0)
(499.016 -7.2724e-11 0)
(500.275 4.90667e-10 0)
(501.647 -4.94289e-10 0)
(502.712 -8.38489e-10 0)
(503.407 8.05097e-10 0)
(503.862 8.83037e-10 0)
(504.185 -4.73949e-10 0)
(504.429 -1.03282e-09 0)
(504.617 -1.62908e-10 0)
(504.762 7.26247e-10 0)
(504.878 3.49682e-10 0)
(504.971 -2.07283e-10 0)
(505.047 -2.51363e-10 0)
(505.11 -2.4046e-10 0)
(505.163 1.96743e-10 0)
(505.209 3.58523e-10 0)
(505.25 -3.94994e-11 0)
(505.284 -3.68838e-10 0)
(505.312 8.80344e-11 0)
(505.328 7.99325e-11 0)
(505.329 -6.37566e-12 0)
(505.328 -8.36572e-12 0)
(505.32 -9.39096e-12 0)
(505.305 -9.11649e-12 0)
(505.284 -5.42783e-12 0)
(505.262 1.09614e-12 0)
(505.241 4.83227e-12 0)
(505.222 3.64609e-12 0)
(505.207 -1.4126e-12 0)
(505.195 -2.3916e-12 0)
(505.182 -3.2628e-13 0)
(505.17 2.48954e-12 0)
(505.158 2.2845e-12 0)
(505.149 1.34687e-12 0)
(505.142 -2.27885e-13 0)
(505.136 -1.24047e-12 0)
(505.13 -1.37517e-12 0)
(505.125 -1.23045e-12 0)
(505.122 6.89679e-14 0)
(505.119 1.91331e-13 0)
(505.117 3.52608e-13 0)
(505.115 4.9593e-13 0)
(505.114 5.37127e-13 0)
(505.112 7.51e-13 0)
(505.11 7.43208e-13 0)
(505.106 6.4091e-13 0)
(505.105 5.13459e-14 0)
(505.106 -4.19676e-13 0)
(505.11 -5.02252e-13 0)
(505.116 -6.13107e-13 0)
(505.123 -4.69803e-13 0)
(505.13 -4.16275e-13 0)
(505.139 -2.3479e-13 0)
(505.148 -2.78266e-13 0)
(505.157 -2.60025e-13 0)
(505.166 -1.31707e-13 0)
(505.174 -3.91372e-13 0)
(505.181 -2.88288e-13 0)
(505.188 -5.54444e-13 0)
(505.192 -1.37717e-13 0)
(505.196 7.10693e-13 0)
(505.201 5.21775e-13 0)
(505.204 5.61468e-13 0)
(505.208 5.27303e-13 0)
(505.209 5.23433e-13 0)
(505.207 7.3941e-13 0)
(505.202 9.13158e-13 0)
(505.197 1.44409e-12 0)
(505.203 9.66101e-13 0)
(505.215 1.44484e-12 0)
(504.8 2.66318e-12 0)
(505.218 -6.66126e-13 0)
(505.564 -2.22403e-12 0)
(505.463 -2.47348e-12 0)
(505.28 -1.43486e-12 0)
(505.183 -1.04469e-12 0)
(505.102 -6.49122e-13 0)
(505.021 -1.56349e-13 0)
(504.982 5.8499e-13 0)
(505.042 5.62241e-13 0)
(504.92 4.10324e-13 0)
(504.859 -9.47614e-15 0)
(504.847 6.39363e-14 0)
(504.879 -2.65895e-13 0)
(505.109 -4.38779e-14 0)
(505.393 3.54231e-13 0)
(505.491 3.26018e-13 0)
(505.58 1.6207e-13 0)
(505.619 1.44051e-14 0)
(505.528 -5.11215e-13 0)
(505.276 -8.93181e-13 0)
(504.938 -2.29109e-13 0)
(504.824 6.73423e-14 0)
(504.812 1.15411e-13 0)
(504.807 2.68148e-13 0)
(504.812 2.67404e-13 0)
(504.803 3.12554e-13 0)
(504.786 1.49873e-13 0)
(504.824 2.02114e-13 0)
(505.058 -5.04894e-14 0)
(505.568 -5.92939e-14 0)
(505.771 -3.53374e-14 0)
(505.679 2.64102e-13 0)
(501.834 -3.00679e-13 0)
(430.093 -1.74087e-12 0)
(123.97 -1.00175e-12 0)
(0.899137 1.08962e-13 0)
(3.53084e-05 -1.27137e-14 0)
(8.1149e-11 8.49133e-15 0)
(2.02769e-13 1.55533e-14 0)
(1.63379e-13 3.16267e-15 0)
(1.17186e-13 -1.25244e-14 0)
(7.1247e-14 -3.33967e-14 0)
(7.08494e-14 -2.55348e-14 0)
(3.7189e-14 -4.32855e-14 0)
(3.79071e-15 -3.4633e-15 0)
(-1.48912e-13 1.68583e-14 0)
(-2.42626e-13 2.09547e-14 0)
(-2.23302e-13 2.4486e-14 0)
(-7.33885e-14 -1.66031e-15 0)
(2.79493e-16 -8.0225e-14 0)
(-9.86741e-14 -7.4954e-14 0)
(-1.35914e-13 -8.69469e-14 0)
(-1.10717e-13 -1.27774e-13 0)
(-1.63989e-13 -7.89741e-14 0)
(-2.54487e-13 -1.14566e-13 0)
(-3.44273e-13 -1.18535e-13 0)
(-3.12533e-13 -9.62363e-14 0)
(-3.8431e-13 -9.48995e-14 0)
(-4.28493e-13 -1.22394e-13 0)
(-3.98184e-13 -5.77351e-14 0)
(-2.8809e-13 -8.15976e-15 0)
(-2.51446e-13 -2.02634e-14 0)
(-3.33711e-13 1.92261e-14 0)
(-2.8288e-13 8.95777e-14 0)
(-2.20573e-13 6.06104e-14 0)
(-2.15134e-13 8.45341e-14 0)
(-1.22609e-13 4.58578e-14 0)
(-2.45336e-13 -2.13269e-14 0)
(-3.27127e-13 -6.89173e-14 0)
(-3.82188e-13 -2.88759e-14 0)
(-3.27617e-13 2.90183e-15 0)
(-7.59591e-14 3.25889e-14 0)
(-2.11019e-14 -1.43791e-14 0)
(2.09392e-14 6.43271e-14 0)
(3.23439e-14 7.55351e-14 0)
(5.09066e-14 8.92306e-14 0)
(-2.40498e-14 6.31949e-14 0)
(-1.10259e-13 2.35785e-14 0)
(-1.43623e-13 3.18311e-14 0)
(-2.25057e-13 3.02652e-14 0)
(-3.52417e-13 7.08943e-14 0)
(-2.60723e-13 2.23434e-14 0)
(-1.474e-13 -8.68398e-15 0)
(-1.29075e-13 2.57824e-14 0)
(-1.02498e-13 1.17094e-13 0)
(-4.36639e-14 1.12957e-13 0)
(1.10421e-13 1.42497e-13 0)
(1.81146e-13 2.19062e-13 0)
(1.28413e-13 1.27591e-13 0)
(1.26184e-13 7.99571e-14 0)
(1.9778e-14 2.5782e-14 0)
(-7.87792e-14 -1.57035e-14 0)
(3.21594e-14 -1.36931e-14 0)
(7.06935e-14 -8.93412e-14 0)
(2.74747e-14 -1.20261e-13 0)
(5.86168e-14 -8.5716e-14 0)
(1.12588e-13 -9.76518e-14 0)
(5.13646e-14 -1.79015e-13 0)
(7.63027e-15 -1.76554e-13 0)
(6.04939e-14 -1.73577e-13 0)
(7.0127e-14 -2.06568e-13 0)
(1.72659e-14 -2.35072e-13 0)
(-1.47632e-14 -2.02174e-13 0)
(-6.49801e-16 -1.68897e-13 0)
(-1.25087e-13 -9.9719e-14 0)
(-2.03695e-13 -4.55775e-14 0)
(-1.00769e-13 -3.99044e-15 0)
(2.37253e-14 -1.43799e-14 0)
(9.66544e-14 4.62564e-14 0)
(1.2483e-13 -2.5869e-14 0)
(4.85782e-14 -1.74725e-14 0)
(1.18485e-13 5.4186e-15 0)
(2.08652e-13 -1.88214e-15 0)
(2.9917e-13 -2.35402e-14 0)
(3.94933e-13 -9.11657e-15 0)
(3.12655e-13 9.47728e-15 0)
(1.60336e-13 4.66322e-14 0)
(2.77875e-13 -1.58433e-14 0)
(2.76628e-13 -1.44785e-13 0)
(1.60232e-13 -1.67455e-13 0)
(2.3188e-13 -2.00941e-13 0)
(2.67417e-13 -2.33218e-13 0)
(2.81235e-13 -1.93131e-13 0)
(3.56824e-13 -1.61028e-13 0)
(2.89674e-13 -9.14292e-14 0)
(2.00332e-13 -7.83716e-14 0)
(1.83533e-13 -1.61791e-14 0)
(1.50851e-13 2.92444e-15 0)
(1.86215e-13 2.3823e-14 0)
(2.53301e-13 1.77582e-14 0)
(3.10083e-13 -6.70768e-14 0)
(2.0525e-13 -1.20602e-13 0)
(2.25067e-14 -8.71527e-14 0)
(3.59855e-14 -3.97321e-14 0)
(9.54547e-14 -1.23853e-14 0)
(1.54575e-14 2.64326e-14 0)
(-9.04554e-14 -3.88182e-14 0)
(-1.92943e-13 -2.96603e-14 0)
(-1.83871e-13 4.40022e-14 0)
(-1.81346e-13 5.59491e-14 0)
(-2.42967e-13 2.9843e-14 0)
(-1.38192e-13 5.34534e-14 0)
(-5.23933e-14 2.56502e-14 0)
(-1.01746e-14 5.11436e-14 0)
(1.37579e-14 1.00741e-13 0)
(1.17823e-13 7.3221e-14 0)
(-3.01862e-14 5.04283e-14 0)
(-1.30007e-13 2.28862e-14 0)
(-5.45473e-14 5.34708e-14 0)
(-2.45971e-13 4.73035e-14 0)
(-3.85459e-13 1.06437e-13 0)
(-3.37965e-13 8.41728e-14 0)
(-4.17416e-13 9.76461e-14 0)
(-4.52209e-13 1.53738e-13 0)
(-2.69635e-13 1.13921e-13 0)
(-1.26453e-13 1.18308e-13 0)
(-1.16084e-13 7.83199e-14 0)
(-6.2384e-14 7.30667e-14 0)
(1.11774e-13 8.11362e-14 0)
(7.61915e-14 1.2939e-14 0)
(-2.97815e-14 1.45309e-14 0)
(-8.24312e-14 7.11335e-14 0)
(-1.76921e-14 5.00271e-14 0)
(-1.87866e-14 7.02503e-14 0)
(-5.59684e-14 4.15566e-14 0)
(-1.01199e-13 2.12011e-14 0)
(-1.93009e-13 8.39725e-15 0)
(-2.12291e-13 -3.02731e-14 0)
(-1.86105e-13 1.1095e-14 0)
(-1.27631e-13 -3.01251e-15 0)
(-2.6425e-13 1.33176e-14 0)
(-2.46378e-13 2.8577e-14 0)
(-1.65132e-13 3.52663e-14 0)
(-1.21464e-13 5.5135e-14 0)
(2.46132e-14 7.14671e-14 0)
(1.39153e-13 1.08997e-14 0)
(4.26453e-14 5.50145e-14 0)
(-4.59063e-14 4.05597e-14 0)
(-6.34025e-14 5.61679e-14 0)
(1.73128e-14 5.82593e-14 0)
(4.45478e-14 1.22151e-13 0)
(-7.7348e-15 9.75049e-14 0)
(3.23514e-14 9.46674e-14 0)
(-3.43584e-14 8.20383e-14 0)
(-1.05911e-13 4.43618e-14 0)
(4.92569e-14 7.41916e-14 0)
(3.96617e-14 9.0544e-14 0)
(8.01336e-14 8.06487e-14 0)
(5.9599e-14 1.45582e-13 0)
(1.36303e-13 1.4565e-13 0)
(2.11048e-13 8.41673e-14 0)
(8.80194e-14 8.0778e-14 0)
(4.56912e-14 6.1138e-14 0)
(6.43804e-14 2.14608e-14 0)
(5.1034e-14 9.34224e-15 0)
(5.31299e-14 -1.14224e-15 0)
(-1.01073e-14 -1.06712e-14 0)
(-8.9306e-14 -4.34246e-14 0)
(-5.32464e-14 -6.13997e-14 0)
(-7.29411e-14 -2.09644e-14 0)
(-2.02786e-13 -2.45783e-14 0)
(-2.35123e-13 -6.08113e-14 0)
(-2.56957e-13 -3.66866e-14 0)
(-2.02466e-13 -3.51826e-14 0)
(-1.79889e-13 -6.8806e-14 0)
(-1.70052e-13 -1.15284e-13 0)
(-2.62475e-13 -6.82778e-14 0)
(-4.5289e-13 -2.51551e-14 0)
(-5.76192e-13 -1.28721e-14 0)
(-5.13231e-13 6.99527e-14 0)
(-4.78786e-13 1.25516e-13 0)
(-5.38929e-13 1.70728e-13 0)
(-5.5387e-13 1.88042e-13 0)
(-5.49038e-13 2.16627e-13 0)
(-4.80354e-13 2.5796e-13 0)
(-4.36934e-13 2.76739e-13 0)
(-4.78879e-13 3.19629e-13 0)
(-5.41503e-13 4.12643e-13 0)
(-5.62878e-13 3.85322e-13 0)
(-6.29329e-13 3.86403e-13 0)
(-6.58461e-13 3.59517e-13 0)
(500 -1.81828e-13 0)
(500 -2.33438e-13 0)
(499.99 -2.32407e-13 0)
(499.903 5.56486e-14 0)
(499.48 3.96556e-13 0)
(498.566 -9.78065e-13 0)
(498.179 -8.55465e-14 0)
(498.327 -1.27649e-11 0)
(499.016 -9.30976e-11 0)
(500.275 6.67731e-10 0)
(501.647 -7.46256e-10 0)
(502.712 -1.06216e-09 0)
(503.407 1.29511e-09 0)
(503.862 1.11895e-09 0)
(504.185 -6.64182e-10 0)
(504.429 -1.42097e-09 0)
(504.617 -1.34142e-10 0)
(504.762 1.1317e-09 0)
(504.878 3.49706e-10 0)
(504.971 -3.85134e-10 0)
(505.047 -3.70033e-10 0)
(505.11 -3.34093e-10 0)
(505.163 2.93297e-10 0)
(505.209 4.95155e-10 0)
(505.25 -7.55481e-11 0)
(505.284 -4.87325e-10 0)
(505.312 2.41303e-10 0)
(505.328 3.48355e-11 0)
(505.329 -1.85847e-11 0)
(505.328 -1.58038e-11 0)
(505.32 -1.1486e-11 0)
(505.305 -7.31594e-12 0)
(505.284 3.19186e-13 0)
(505.262 7.37975e-12 0)
(505.241 8.91171e-12 0)
(505.222 5.02027e-12 0)
(505.207 -2.03258e-12 0)
(505.195 -3.49005e-12 0)
(505.182 -1.35122e-12 0)
(505.17 1.34771e-12 0)
(505.158 2.1957e-12 0)
(505.149 1.56939e-12 0)
(505.142 -5.03364e-13 0)
(505.136 -1.61707e-12 0)
(505.13 -1.73735e-12 0)
(505.125 -1.28269e-12 0)
(505.122 3.09503e-13 0)
(505.119 5.66999e-13 0)
(505.117 7.58941e-13 0)
(505.115 9.512e-13 0)
(505.114 1.23949e-12 0)
(505.112 6.14389e-13 0)
(505.11 3.53155e-14 0)
(505.106 -1.4383e-13 0)
(505.105 -4.74856e-13 0)
(505.106 -4.92705e-13 0)
(505.11 -4.32218e-13 0)
(505.116 -4.66976e-13 0)
(505.123 -2.17217e-13 0)
(505.13 -3.68292e-13 0)
(505.139 -4.8749e-13 0)
(505.148 -3.37894e-13 0)
(505.157 -2.56243e-13 0)
(505.166 -6.70807e-14 0)
(505.174 -1.57129e-13 0)
(505.181 -2.1405e-13 0)
(505.188 -5.24822e-13 0)
(505.192 -5.65534e-14 0)
(505.196 1.91383e-13 0)
(505.201 3.57183e-13 0)
(505.204 3.14529e-13 0)
(505.208 1.10992e-13 0)
(505.209 2.87575e-14 0)
(505.207 5.12336e-14 0)
(505.202 3.79654e-13 0)
(505.197 7.31249e-13 0)
(505.203 5.72219e-13 0)
(505.215 1.29486e-12 0)
(504.8 2.94616e-13 0)
(505.218 -1.3127e-12 0)
(505.564 -8.1982e-13 0)
(505.463 -9.16359e-13 0)
(505.28 -3.41146e-13 0)
(505.183 -1.75372e-13 0)
(505.102 -4.62494e-14 0)
(505.021 -8.19456e-14 0)
(504.982 4.08702e-13 0)
(505.042 2.03198e-13 0)
(504.92 1.59125e-13 0)
(504.859 2.16636e-14 0)
(504.847 7.37601e-14 0)
(504.879 -8.37483e-14 0)
(505.109 -1.8461e-13 0)
(505.393 2.90725e-13 0)
(505.491 1.92166e-13 0)
(505.58 1.08106e-13 0)
(505.619 -2.32361e-13 0)
(505.528 -2.75327e-13 0)
(505.276 -1.0298e-13 0)
(504.938 2.92508e-14 0)
(504.824 2.52062e-13 0)
(504.812 2.33979e-13 0)
(504.807 3.11421e-13 0)
(504.812 4.57063e-13 0)
(504.803 3.34961e-13 0)
(504.786 -5.03911e-14 0)
(504.824 -2.41013e-13 0)
(505.058 -5.87936e-13 0)
(505.568 -1.63731e-13 0)
(505.771 -1.91005e-13 0)
(505.679 -3.48923e-13 0)
(501.834 -2.70351e-13 0)
(430.093 7.21861e-14 0)
(123.97 1.15631e-13 0)
(0.899137 7.24774e-14 0)
(3.53084e-05 1.75607e-14 0)
(8.11525e-11 3.44932e-14 0)
(1.35641e-13 2.00964e-14 0)
(1.01529e-13 -1.15051e-14 0)
(1.29338e-13 -6.387e-14 0)
(1.88541e-13 -6.70895e-14 0)
(1.4711e-13 -4.29915e-15 0)
(1.10838e-14 -6.42984e-15 0)
(-8.07959e-14 -3.98384e-14 0)
(-2.20094e-13 -1.25835e-14 0)
(-3.05569e-13 -2.32775e-14 0)
(-1.87399e-13 -1.50557e-14 0)
(-5.34449e-14 -5.75377e-14 0)
(-8.8352e-16 -1.06959e-13 0)
(-8.42561e-14 -1.30358e-13 0)
(-1.87398e-13 -1.49716e-13 0)
(-1.78287e-13 -1.88565e-13 0)
(-1.41363e-13 -1.73095e-13 0)
(-2.61267e-13 -1.75572e-13 0)
(-3.45317e-13 -1.49169e-13 0)
(-3.0231e-13 -1.17305e-13 0)
(-4.32866e-13 -1.18045e-13 0)
(-4.38985e-13 -1.14269e-13 0)
(-2.84036e-13 -5.65743e-14 0)
(-2.36452e-13 -3.50455e-14 0)
(-2.74378e-13 2.78294e-14 0)
(-2.28973e-13 6.55066e-14 0)
(-2.56395e-13 1.19915e-13 0)
(-2.56322e-13 1.01894e-13 0)
(-2.46726e-13 1.29024e-13 0)
(-2.82718e-13 6.61759e-14 0)
(-3.58005e-13 -5.39084e-14 0)
(-3.6603e-13 -8.72539e-14 0)
(-2.8367e-13 -9.93209e-14 0)
(-2.45993e-13 -5.50789e-14 0)
(-1.16345e-13 2.38343e-14 0)
(2.02585e-14 -1.14487e-14 0)
(9.03964e-14 3.30709e-14 0)
(8.31616e-14 4.30313e-14 0)
(-8.63856e-15 4.75693e-14 0)
(-9.92943e-14 2.52188e-14 0)
(6.54875e-15 4.29939e-14 0)
(-8.09019e-14 1.06226e-13 0)
(-2.70232e-13 1.02051e-13 0)
(-3.6473e-13 1.55634e-13 0)
(-2.64192e-13 1.43971e-13 0)
(-1.11807e-13 1.34513e-13 0)
(-1.84694e-14 1.40266e-13 0)
(-8.73234e-14 1.51893e-13 0)
(-7.35851e-14 1.29219e-13 0)
(9.32052e-14 1.29062e-13 0)
(1.2665e-13 9.09121e-14 0)
(4.36995e-14 4.00528e-14 0)
(-3.87956e-15 3.1431e-14 0)
(-1.81336e-14 7.3576e-15 0)
(-2.60578e-14 3.20596e-14 0)
(-8.49091e-14 5.88095e-14 0)
(-3.58355e-14 5.62306e-15 0)
(4.39956e-14 -7.13731e-14 0)
(1.3573e-13 -9.42637e-14 0)
(1.33866e-14 -1.05006e-13 0)
(-4.98279e-14 -1.80019e-13 0)
(8.79767e-14 -1.87628e-13 0)
(6.7232e-14 -2.26986e-13 0)
(1.15278e-14 -2.44317e-13 0)
(4.93708e-14 -2.68603e-13 0)
(9.38259e-14 -2.26643e-13 0)
(8.2844e-14 -1.68273e-13 0)
(-7.21283e-14 -1.09615e-13 0)
(-1.75024e-13 -1.47671e-13 0)
(-7.16523e-14 -8.36448e-14 0)
(7.75822e-14 -5.22247e-14 0)
(8.18337e-14 -8.04294e-15 0)
(6.04794e-14 -1.53013e-14 0)
(1.04067e-13 7.6302e-15 0)
(1.46644e-13 1.96677e-14 0)
(2.66425e-13 4.11524e-14 0)
(2.93592e-13 2.53312e-14 0)
(3.85374e-13 8.0857e-15 0)
(3.57313e-13 -1.49437e-14 0)
(2.10973e-13 -3.60634e-14 0)
(1.82275e-13 -9.45477e-14 0)
(2.09154e-13 -1.21823e-13 0)
(1.36429e-13 -1.58588e-13 0)
(1.6836e-13 -1.5758e-13 0)
(2.42903e-13 -1.94556e-13 0)
(2.66542e-13 -1.57541e-13 0)
(3.69443e-13 -1.61708e-13 0)
(3.95421e-13 -1.66963e-13 0)
(2.98725e-13 -6.84866e-14 0)
(2.71964e-13 -1.57996e-14 0)
(2.55402e-13 4.60283e-14 0)
(1.69608e-13 2.77949e-14 0)
(1.33293e-13 -2.12615e-14 0)
(1.92582e-13 -4.8559e-14 0)
(2.23191e-13 -5.05187e-14 0)
(1.23215e-13 -2.62139e-14 0)
(1.78474e-13 3.14036e-14 0)
(9.11789e-14 4.11531e-14 0)
(-6.33134e-14 -1.45557e-14 0)
(-1.86125e-13 8.39057e-15 0)
(-1.27879e-13 1.56262e-14 0)
(-1.2177e-13 6.60533e-14 0)
(-1.96381e-13 1.01473e-13 0)
(-2.51048e-13 9.42003e-14 0)
(-8.07399e-14 1.36367e-13 0)
(3.71789e-14 1.56154e-13 0)
(3.54163e-14 1.15394e-13 0)
(-1.4672e-14 1.02966e-13 0)
(4.65001e-14 8.96553e-14 0)
(-4.77905e-14 1.10933e-13 0)
(-8.65864e-14 9.07524e-14 0)
(-3.14467e-14 1.10481e-13 0)
(-2.23879e-13 8.2396e-14 0)
(-3.0227e-13 1.91401e-13 0)
(-3.45532e-13 2.40317e-13 0)
(-4.03535e-13 1.8085e-13 0)
(-4.09154e-13 1.46759e-13 0)
(-3.21833e-13 1.5503e-13 0)
(-2.02961e-13 1.65538e-13 0)
(-1.81919e-13 1.53644e-13 0)
(-1.09624e-13 1.98155e-13 0)
(-2.67941e-14 1.46078e-13 0)
(-3.52115e-14 6.45326e-14 0)
(-4.03956e-14 5.75425e-14 0)
(-8.78181e-14 5.77198e-14 0)
(-2.243e-14 2.35607e-14 0)
(2.67623e-15 3.72031e-15 0)
(-7.58138e-14 1.27844e-14 0)
(-1.058e-13 -3.50523e-14 0)
(-1.8586e-13 -2.90554e-14 0)
(-2.87577e-13 -6.76152e-14 0)
(-1.78044e-13 -4.619e-14 0)
(-3.82279e-14 -2.33702e-14 0)
(-1.65939e-13 1.3489e-14 0)
(-2.79989e-13 5.24399e-14 0)
(-1.54731e-13 5.39095e-14 0)
(-1.33206e-14 1.12864e-13 0)
(6.2988e-14 1.14788e-13 0)
(1.42733e-13 7.31338e-14 0)
(7.68989e-14 4.99164e-14 0)
(-1.0938e-13 1.15508e-13 0)
(-7.50555e-14 1.41057e-13 0)
(7.30315e-14 1.19633e-13 0)
(5.49715e-14 9.09438e-14 0)
(-1.30148e-14 1.03469e-13 0)
(4.66952e-14 1.27584e-13 0)
(-2.26801e-14 1.52648e-13 0)
(-4.48915e-14 1.76481e-13 0)
(9.47831e-14 1.9045e-13 0)
(3.05401e-14 1.81079e-13 0)
(7.57493e-14 1.85273e-13 0)
(1.4705e-13 1.6072e-13 0)
(1.06907e-13 1.69946e-13 0)
(1.31088e-13 1.38529e-13 0)
(9.01924e-14 1.50116e-13 0)
(1.66286e-14 1.14845e-13 0)
(1.08511e-14 1.10602e-13 0)
(9.76045e-15 8.42986e-14 0)
(-1.97319e-15 2.81201e-14 0)
(-3.7502e-14 1.81395e-14 0)
(-1.91646e-13 -1.82474e-15 0)
(-9.49568e-14 -6.57684e-14 0)
(1.57495e-14 -6.99828e-14 0)
(-1.61309e-13 -3.58503e-14 0)
(-2.37486e-13 -2.24257e-14 0)
(-3.04218e-13 -2.00794e-14 0)
(-2.23077e-13 -4.37904e-14 0)
(-2.54673e-13 -3.88545e-14 0)
(-2.42895e-13 -9.83442e-14 0)
(-2.16745e-13 -1.06508e-13 0)
(-3.51653e-13 -1.01759e-13 0)
(-4.12547e-13 2.43238e-14 0)
(-3.89647e-13 1.60987e-13 0)
(-4.32658e-13 2.25924e-13 0)
(-4.271e-13 2.73766e-13 0)
(-4.75948e-13 3.35413e-13 0)
(-5.47798e-13 3.50022e-13 0)
(-5.12072e-13 4.06198e-13 0)
(-4.48614e-13 4.54298e-13 0)
(-3.61872e-13 5.22518e-13 0)
(-4.03307e-13 6.24425e-13 0)
(-5.1571e-13 6.7749e-13 0)
(-4.62263e-13 6.73155e-13 0)
(-4.84102e-13 6.94491e-13 0)
(500 -3.30441e-14 0)
(500 -3.72422e-14 0)
(499.99 3.03912e-14 0)
(499.903 1.03037e-13 0)
(499.48 2.94962e-13 0)
(498.566 -1.04526e-12 0)
(498.179 -1.0161e-13 0)
(498.327 -1.78565e-11 0)
(499.016 -8.3775e-11 0)
(500.275 7.28586e-10 0)
(501.647 -8.9414e-10 0)
(502.712 -1.02425e-09 0)
(503.407 1.5039e-09 0)
(503.862 1.16818e-09 0)
(504.185 -7.87146e-10 0)
(504.429 -1.56309e-09 0)
(504.617 -3.55866e-11 0)
(504.762 1.31077e-09 0)
(504.878 2.99756e-10 0)
(504.971 -4.73833e-10 0)
(505.047 -4.19087e-10 0)
(505.11 -3.45291e-10 0)
(505.163 3.63127e-10 0)
(505.209 5.40558e-10 0)
(505.25 -1.31712e-10 0)
(505.284 -5.43976e-10 0)
(505.312 3.20403e-10 0)
(505.328 -1.56403e-11 0)
(505.329 -2.65098e-11 0)
(505.328 -2.15089e-11 0)
(505.32 -1.43209e-11 0)
(505.305 -5.73088e-12 0)
(505.284 4.95051e-12 0)
(505.262 1.14835e-11 0)
(505.241 1.16557e-11 0)
(505.222 5.30973e-12 0)
(505.207 -3.13489e-12 0)
(505.195 -4.5534e-12 0)
(505.182 -2.01262e-12 0)
(505.17 8.86049e-13 0)
(505.158 1.73827e-12 0)
(505.149 1.19265e-12 0)
(505.142 -6.00415e-13 0)
(505.136 -1.74518e-12 0)
(505.13 -1.39022e-12 0)
(505.125 -1.40959e-12 0)
(505.122 1.74164e-13 0)
(505.119 6.30827e-13 0)
(505.117 1.12305e-12 0)
(505.115 1.31825e-12 0)
(505.114 1.84438e-12 0)
(505.112 5.85838e-13 0)
(505.11 -4.38976e-13 0)
(505.106 -6.27905e-13 0)
(505.105 -7.88184e-13 0)
(505.106 -6.07524e-13 0)
(505.11 -4.08816e-13 0)
(505.116 -2.60332e-13 0)
(505.123 -1.16415e-13 0)
(505.13 -2.78047e-13 0)
(505.139 -1.70178e-13 0)
(505.148 -2.02801e-13 0)
(505.157 -4.39966e-14 0)
(505.166 1.41815e-13 0)
(505.174 1.85557e-13 0)
(505.181 -1.74178e-13 0)
(505.188 -5.15722e-13 0)
(505.192 -2.34128e-13 0)
(505.196 -1.42241e-13 0)
(505.201 2.26558e-13 0)
(505.204 1.54615e-13 0)
(505.208 -5.90583e-14 0)
(505.209 -2.59173e-13 0)
(505.207 -5.53253e-13 0)
(505.202 -1.74658e-13 0)
(505.197 1.03815e-13 0)
(505.203 2.70297e-13 0)
(505.215 8.42958e-13 0)
(504.8 -6.33677e-14 0)
(505.218 -3.28745e-13 0)
(505.564 1.47478e-13 0)
(505.463 -5.59032e-14 0)
(505.28 2.14067e-13 0)
(505.183 8.6086e-14 0)
(505.102 1.76427e-13 0)
(505.021 -3.81643e-14 0)
(504.982 2.70428e-14 0)
(505.042 -1.109e-13 0)
(504.92 -1.40405e-13 0)
(504.859 1.04443e-13 0)
(504.847 1.34916e-13 0)
(504.879 1.60725e-13 0)
(505.109 4.12189e-14 0)
(505.393 1.2927e-13 0)
(505.491 2.8774e-14 0)
(505.58 -8.45262e-14 0)
(505.619 -2.21585e-13 0)
(505.528 -1.79251e-14 0)
(505.276 1.13345e-13 0)
(504.938 3.15787e-14 0)
(504.824 2.28954e-13 0)
(504.812 2.23348e-13 0)
(504.807 2.62401e-13 0)
(504.812 3.47412e-13 0)
(504.803 -2.88422e-14 0)
(504.786 -3.74925e-13 0)
(504.824 -5.81233e-13 0)
(505.058 -6.72451e-13 0)
(505.568 -1.19665e-13 0)
(505.771 -7.49908e-14 0)
(505.679 -1.54972e-13 0)
(501.834 2.70231e-13 0)
(430.093 5.27323e-14 0)
(123.97 1.30381e-13 0)
(0.899137 -3.23007e-14 0)
(3.53084e-05 3.37418e-14 0)
(8.11074e-11 6.48727e-14 0)
(1.03255e-13 5.2862e-14 0)
(1.12666e-13 2.79437e-14 0)
(6.48844e-14 -1.17509e-14 0)
(1.35872e-13 -1.1217e-14 0)
(1.23711e-13 -9.68681e-15 0)
(3.15267e-14 -6.89064e-14 0)
(-5.54463e-14 -7.72252e-14 0)
(-2.16331e-13 -6.52363e-14 0)
(-2.98311e-13 -6.64857e-14 0)
(-2.11407e-13 -5.92138e-14 0)
(-1.35643e-13 -5.19475e-14 0)
(-1.07308e-13 -1.38271e-13 0)
(-1.58624e-13 -1.81619e-13 0)
(-1.56219e-13 -2.01261e-13 0)
(-1.86658e-13 -1.87793e-13 0)
(-2.02025e-13 -2.12606e-13 0)
(-2.45149e-13 -1.94637e-13 0)
(-2.70606e-13 -1.2613e-13 0)
(-2.84009e-13 -1.33903e-13 0)
(-3.5674e-13 -1.31533e-13 0)
(-3.83293e-13 -3.81381e-14 0)
(-3.18274e-13 -2.68079e-14 0)
(-1.98059e-13 -3.88396e-14 0)
(-1.12297e-13 -6.47086e-15 0)
(-2.6456e-13 6.90473e-14 0)
(-2.91605e-13 6.01642e-14 0)
(-2.2063e-13 6.27751e-14 0)
(-2.61176e-13 6.00253e-14 0)
(-3.81823e-13 4.46964e-14 0)
(-4.62237e-13 2.86506e-14 0)
(-3.9667e-13 -2.12541e-14 0)
(-2.52405e-13 -2.09808e-14 0)
(-1.42999e-13 1.69415e-14 0)
(-1.71649e-14 6.65815e-14 0)
(6.73493e-14 8.81596e-14 0)
(6.162e-14 6.93582e-14 0)
(-1.20231e-14 3.36862e-14 0)
(-1.27487e-14 7.80637e-15 0)
(-3.35731e-14 3.2687e-14 0)
(1.51901e-14 2.353e-14 0)
(-9.016e-14 7.45268e-14 0)
(-2.61156e-13 6.14656e-14 0)
(-3.04014e-13 9.18453e-14 0)
(-2.21246e-13 1.48654e-13 0)
(-1.44912e-13 1.30496e-13 0)
(-6.89477e-14 1.65091e-13 0)
(-1.16503e-13 1.46604e-13 0)
(-4.38023e-14 1.86129e-13 0)
(5.95576e-14 1.44008e-13 0)
(4.718e-14 6.27405e-14 0)
(2.64932e-14 9.20002e-15 0)
(5.36864e-14 -3.75325e-16 0)
(-2.65704e-14 3.77258e-14 0)
(-1.05717e-13 1.8699e-14 0)
(-6.14231e-14 4.93903e-15 0)
(-9.13093e-14 -7.62824e-15 0)
(-2.75258e-14 -3.73133e-14 0)
(9.29966e-14 -5.05612e-14 0)
(1.49358e-14 -7.89978e-14 0)
(-5.7344e-14 -7.40359e-14 0)
(2.49837e-14 -7.44659e-14 0)
(9.29467e-14 -1.21497e-13 0)
(6.76938e-14 -1.01033e-13 0)
(1.09e-13 -9.23415e-14 0)
(1.68962e-13 -5.86299e-14 0)
(7.7641e-14 -6.01654e-14 0)