/*--------------------------------*- C++ -*----------------------------------*\
| =========                 |                                                 |
| \\      /  F ield         | OpenFOAM: The Open Source CFD Toolbox           |
|  \\    /   O peration     | Version:  2306                                  |
|   \\  /    A nd           | Website:  www.openfoam.com                      |
|    \\/     M anipulation  |                                                 |
\*---------------------------------------------------------------------------*/
FoamFile
{
    version     2.0;
    format      ascii;
    arch        "LSB;label=32;scalar=64";
    class       volScalarField;
    location    "0.07";
    object      rho;
}
// * * * * * * * * * * * * * * * * * * * * * * * * * * * * * * * * * * * * * //

dimensions      [1 -3 0 0 0 0 0];

internalField   nonuniform List<scalar> 
6000
(
18.4331
0.705009
0.237124
0.231704
0.229196
0.228927
0.221001
0.20373
0.157026
0.13496
0.134349
0.137467
0.143829
0.151719
0.159938
0.168277
0.176991
0.18665
0.197482
0.207179
0.211498
0.211768
0.210485
0.205371
0.180422
0.142457
0.135332
0.135973
0.139467
0.144195
0.148234
0.151527
0.15454
0.1576
0.160823
0.164158
0.167524
0.171193
0.176296
0.183592
0.188335
0.187792
0.181951
0.157889
0.13598
0.133846
0.134472
0.137213
0.14046
0.142739
0.144266
0.14559
0.147023
0.148621
0.150257
0.151783
0.153251
0.155133
0.158663
0.164338
0.167425
0.166714
0.161072
0.14285
0.130081
0.129132
0.129722
0.132056
0.135102
0.137517
0.13934
0.141149
0.143318
0.145925
0.148854
0.15189
0.155035
0.15868
0.163835
0.171066
0.17587
0.17726
0.171522
0.1569
0.15127
0.152427
0.155527
0.160608
0.165518
0.169214
0.172121
0.174942
0.178017
0.181278
0.184636
0.188474
0.193937
0.201858
0.208057
0.210814
0.20669
0.196211
0.192924
0.196578
0.203664
0.213628
0.2237
0.232403
0.240312
0.248492
0.257849
0.269771
0.285561
0.302781
0.312255
0.313858
0.306021
0.305485
0.316535
0.335631
0.360239
0.385076
0.40992
0.439464
0.480004
0.5325
0.579171
0.622438
0.665153
0.745042
0.863834
1.03488
1.23921
1.36674
1.4236
1.42743
1.45961
1.52144
1.60134
1.62384
1.61877
1.59911
1.60025
1.6142
1.63528
1.63968
1.63652
1.62958
1.62965
1.6337
1.63903
1.63963
1.6378
1.63351
1.63228
1.63318
1.63509
1.63618
1.63646
1.63595
1.636
1.63671
1.63822
1.63994
1.64111
1.64205
1.6433
1.64518
1.64707
1.6478
1.64797
1.64743
1.64561
1.64271
1.64033
1.63964
1.63983
1.64028
1.64134
1.64314
1.64534
1.64687
1.64735
1.64746
1.64725
1.64653
1.64531
1.644
1.64322
1.64303
1.64306
1.64307
1.64288
1.6424
1.64164
1.64089
1.64052
1.6405
1.64088
1.64181
1.64331
1.64536
1.64756
1.6491
1.64977
1.64996
1.6499
1.64941
1.64817
1.646
1.64315
1.64082
1.63997
1.63993
1.64005
1.64049
1.64147
1.64327
1.64587
1.6486
1.65048
1.65128
1.65151
1.65152
1.65137
1.65085
1.6496
1.64727
1.64391
1.64023
1.63736
1.63582
1.63517
1.63488
1.63473
1.63467
1.63492
1.63574
1.6375
1.64034
1.64361
1.64564
1.64605
1.64603
1.64578
1.64489
1.64266
1.63848
1.63269
1.62762
1.62525
1.6247
1.62476
1.62509
1.62593
1.62789
1.63151
1.63692
1.64354
1.65031
1.65608
1.66016
1.6625
1.6635
1.66386
1.66369
1.66228
1.65863
1.65286
1.64807
1.64662
1.64627
1.64645
1.64748
1.6497
1.65352
1.65926
1.66629
1.6708
1.6715
1.67052
1.66873
1.66635
1.66233
1.65541
1.64464
1.63163
1.62175
1.61833
1.61816
1.61842
1.61958
1.6223
1.62696
1.63223
1.63546
1.63594
1.63547
1.63387
1.62398
18.4313
0.704336
0.236961
0.23162
0.228846
0.228578
0.220625
0.203258
0.156604
0.134685
0.13411
0.137264
0.143644
0.151532
0.159768
0.168156
0.176978
0.186822
0.197882
0.207785
0.212211
0.212464
0.211079
0.205924
0.18061
0.142403
0.135355
0.136011
0.13952
0.144249
0.148287
0.151573
0.154572
0.157608
0.1608
0.1641
0.167442
0.171126
0.176302
0.183739
0.188619
0.188046
0.182262
0.158214
0.136109
0.133933
0.134553
0.137286
0.140513
0.142769
0.144274
0.145576
0.146981
0.148549
0.150156
0.15167
0.153147
0.155045
0.158535
0.164118
0.167253
0.166579
0.161035
0.142944
0.130174
0.129221
0.129818
0.132174
0.135251
0.137657
0.139439
0.141206
0.143338
0.145922
0.14883
0.151844
0.15496
0.15859
0.16377
0.171066
0.175958
0.177384
0.171672
0.157072
0.151447
0.15262
0.155744
0.160842
0.165758
0.169447
0.172344
0.175157
0.178216
0.18148
0.184872
0.188739
0.194211
0.20215
0.208179
0.210793
0.206383
0.195848
0.192806
0.196504
0.203637
0.21357
0.223582
0.232216
0.24004
0.24814
0.25745
0.269396
0.28534
0.302776
0.31222
0.313803
0.305876
0.305243
0.316335
0.335507
0.360231
0.385136
0.409915
0.439225
0.479545
0.532475
0.579603
0.623343
0.665133
0.744015
0.860953
1.02992
1.23257
1.36124
1.41887
1.42235
1.45417
1.51563
1.59957
1.62544
1.62086
1.59882
1.59841
1.61148
1.63396
1.64031
1.6378
1.63012
1.62939
1.63271
1.63817
1.63916
1.63787
1.63407
1.63251
1.63328
1.63499
1.63608
1.63642
1.63599
1.63605
1.63676
1.63824
1.63996
1.64115
1.64209
1.6433
1.64511
1.64698
1.64774
1.64793
1.64743
1.64568
1.64286
1.64054
1.6399
1.64009
1.64055
1.6416
1.64337
1.64553
1.64703
1.64748
1.64759
1.64737
1.64664
1.64544
1.64415
1.64339
1.6432
1.64321
1.64321
1.643
1.64252
1.64176
1.64103
1.64066
1.64063
1.641
1.6419
1.64335
1.64534
1.64748
1.64896
1.64956
1.64974
1.64969
1.64925
1.64813
1.64613
1.64343
1.6411
1.64018
1.64009
1.6402
1.64061
1.6415
1.64312
1.64548
1.64799
1.64979
1.65061
1.65087
1.65094
1.65082
1.6503
1.64905
1.64681
1.64364
1.64014
1.63734
1.63582
1.63523
1.63504
1.63495
1.63504
1.63545
1.63641
1.63824
1.64104
1.64419
1.64612
1.64649
1.64646
1.64623
1.64534
1.64315
1.63906
1.63339
1.62835
1.62598
1.62548
1.62551
1.62587
1.62676
1.62868
1.63213
1.63726
1.6436
1.65014
1.6557
1.65948
1.6614
1.66207
1.66226
1.66193
1.66047
1.65695
1.65152
1.64707
1.64575
1.64542
1.64566
1.64674
1.64897
1.65275
1.65843
1.66544
1.67035
1.67143
1.67072
1.6692
1.66729
1.66401
1.65796
1.64772
1.63414
1.62292
1.61882
1.61854
1.61881
1.61985
1.62229
1.62642
1.63094
1.63378
1.6344
1.63412
1.63267
1.62327
18.4312
0.702883
0.236794
0.231505
0.228605
0.228448
0.220461
0.202726
0.155944
0.134334
0.133776
0.136911
0.143273
0.151176
0.159466
0.167951
0.1769
0.186892
0.198078
0.208154
0.212809
0.213284
0.212033
0.206844
0.180932
0.142361
0.135457
0.136131
0.139667
0.144382
0.148394
0.151666
0.154653
0.157666
0.160825
0.164081
0.16738
0.171037
0.176201
0.183749
0.188914
0.188454
0.182773
0.158645
0.136287
0.134068
0.134684
0.13741
0.140615
0.14284
0.144317
0.145596
0.146977
0.14852
0.150105
0.151589
0.153034
0.154892
0.158314
0.163844
0.166967
0.166318
0.160879
0.143043
0.130281
0.129321
0.129922
0.132305
0.135431
0.13787
0.139664
0.141433
0.143547
0.146086
0.148935
0.151885
0.154948
0.158554
0.16375
0.171096
0.176114
0.177617
0.172009
0.157479
0.151844
0.153042
0.156204
0.161341
0.166265
0.169938
0.17281
0.17559
0.178623
0.181877
0.185322
0.189312
0.194948
0.20305
0.208745
0.211088
0.206104
0.195301
0.192629
0.196345
0.20353
0.213402
0.22326
0.231676
0.239262
0.247136
0.256275
0.268162
0.284219
0.301965
0.311494
0.313282
0.305345
0.304528
0.315778
0.335222
0.360408
0.385709
0.410502
0.439508
0.479456
0.532852
0.580255
0.624003
0.663639
0.738935
0.849863
1.01059
1.20622
1.33789
1.39994
1.40621
1.43842
1.49961
1.59044
1.62532
1.6242
1.60094
1.59639
1.60738
1.63098
1.64065
1.6396
1.63189
1.6293
1.63144
1.63655
1.63837
1.6378
1.63498
1.63301
1.63358
1.63488
1.63591
1.63633
1.63605
1.63616
1.63683
1.63825
1.63998
1.64121
1.64217
1.64334
1.64505
1.64684
1.64762
1.64783
1.64737
1.64573
1.64305
1.64083
1.64022
1.64042
1.6409
1.64198
1.64375
1.64585
1.64727
1.64769
1.64778
1.64754
1.64681
1.64562
1.64439
1.64366
1.64346
1.64346
1.64343
1.6432
1.64268
1.64191
1.64121
1.64088
1.64084
1.64121
1.6421
1.6435
1.64537
1.64736
1.64872
1.64927
1.64944
1.64935
1.6489
1.64787
1.64613
1.64379
1.64159
1.64052
1.64037
1.64048
1.64086
1.64165
1.64301
1.64501
1.64728
1.64902
1.64984
1.65012
1.65017
1.64998
1.64935
1.64805
1.64593
1.64306
1.63994
1.63738
1.63595
1.63546
1.63535
1.63535
1.63554
1.63606
1.63716
1.63912
1.64196
1.64493
1.64657
1.64686
1.64685
1.64661
1.6457
1.64356
1.63965
1.63427
1.62941
1.62708
1.62656
1.62659
1.627
1.628
1.62999
1.63336
1.63818
1.644
1.64988
1.65475
1.65794
1.65955
1.66018
1.66032
1.65987
1.65819
1.65451
1.64923
1.64531
1.6443
1.64407
1.64441
1.64556
1.64786
1.65166
1.65722
1.66402
1.66936
1.67099
1.67068
1.66943
1.66802
1.6656
1.66078
1.6519
1.63882
1.62601
1.62002
1.61928
1.61959
1.62053
1.62257
1.62599
1.62975
1.63199
1.63244
1.63194
1.63027
1.62168
18.4325
0.70175
0.236632
0.231461
0.228435
0.228392
0.220375
0.202209
0.155321
0.134081
0.133558
0.136637
0.142917
0.15076
0.15905
0.167626
0.176749
0.186924
0.198265
0.208457
0.213286
0.213982
0.21281
0.207655
0.181281
0.142342
0.135546
0.136246
0.139822
0.144542
0.148548
0.15182
0.154814
0.157821
0.16094
0.164143
0.167402
0.171039
0.176197
0.183853
0.189294
0.188928
0.183318
0.159042
0.136457
0.134207
0.134826
0.137554
0.140742
0.142935
0.144379
0.145624
0.146972
0.148485
0.150036
0.151478
0.15286
0.154631
0.157966
0.163451
0.166574
0.165964
0.160676
0.143153
0.130383
0.129404
0.13
0.132388
0.135549
0.13803
0.139852
0.141639
0.143762
0.146289
0.149099
0.152004
0.155044
0.158641
0.163857
0.171286
0.176462
0.178063
0.172526
0.15806
0.152478
0.153739
0.157018
0.162257
0.167202
0.170831
0.173654
0.176402
0.179437
0.182725
0.186235
0.19037
0.196266
0.204582
0.209854
0.211789
0.20595
0.194759
0.192513
0.196195
0.203408
0.213146
0.222727
0.230756
0.237943
0.245457
0.254298
0.265951
0.281868
0.2999
0.309627
0.311896
0.304163
0.303055
0.314554
0.334431
0.36022
0.386083
0.411154
0.440163
0.479929
0.533517
0.58089
0.623058
0.657807
0.725329
0.824684
0.969231
1.14902
1.28626
1.35799
1.37763
1.41253
1.47299
1.56995
1.61981
1.62531
1.60454
1.595
1.60383
1.627
1.64051
1.6409
1.63393
1.629
1.63015
1.63469
1.6377
1.63781
1.63602
1.63375
1.63385
1.63482
1.63576
1.63626
1.63617
1.63632
1.63696
1.63829
1.64003
1.64134
1.64233
1.64345
1.64501
1.64669
1.64748
1.64771
1.64732
1.6458
1.64325
1.64118
1.64064
1.64087
1.64139
1.6425
1.64426
1.64627
1.64758
1.64796
1.64805
1.64781
1.64709
1.64597
1.64483
1.64411
1.64387
1.64383
1.64375
1.64349
1.64295
1.64217
1.6415
1.64118
1.64112
1.64148
1.64235
1.64367
1.64539
1.64718
1.64839
1.64887
1.64901
1.64889
1.64843
1.64751
1.64606
1.64417
1.64224
1.64104
1.64075
1.6408
1.64109
1.64173
1.64284
1.64451
1.64646
1.64799
1.64871
1.64894
1.64895
1.64869
1.64801
1.64677
1.64488
1.6424
1.63973
1.63749
1.63618
1.63577
1.63572
1.63582
1.63614
1.63683
1.63815
1.64031
1.6432
1.64593
1.64721
1.64738
1.64736
1.64707
1.64615
1.64413
1.64063
1.63587
1.6314
1.62899
1.62834
1.62831
1.62871
1.62972
1.63164
1.63477
1.63915
1.64435
1.64944
1.65348
1.65602
1.65723
1.6577
1.65767
1.65693
1.65484
1.6509
1.64592
1.6428
1.64217
1.64208
1.6425
1.64375
1.64618
1.65008
1.65563
1.66231
1.66816
1.67054
1.67071
1.66998
1.66903
1.66741
1.66384
1.65682
1.64555
1.63227
1.62305
1.6205
1.62059
1.62122
1.62269
1.62529
1.62796
1.62933
1.62958
1.62892
1.62717
1.61975
18.4355
0.703172
0.236476
0.231361
0.228221
0.228163
0.220176
0.20183
0.155092
0.134095
0.133554
0.13656
0.14275
0.15051
0.158737
0.167284
0.176455
0.186767
0.198263
0.208568
0.213571
0.214395
0.213169
0.207974
0.18146
0.142358
0.135602
0.136324
0.139929
0.144658
0.148673
0.151972
0.154994
0.158014
0.161114
0.164267
0.167472
0.171087
0.176284
0.184066
0.189681
0.189322
0.183668
0.15921
0.136538
0.134294
0.134924
0.137663
0.140852
0.14304
0.144473
0.145698
0.147017
0.148491
0.149995
0.151387
0.152699
0.154388
0.157632
0.16304
0.166141
0.165575
0.160434
0.143228
0.130471
0.129462
0.130039
0.13241
0.135586
0.138107
0.139965
0.141779
0.143924
0.146467
0.149284
0.152186
0.155229
0.158843
0.1641
0.171597
0.176904
0.178586
0.173055
0.158665
0.153224
0.154584
0.158039
0.163419
0.168398
0.172002
0.174812
0.177569
0.180632
0.183982
0.187593
0.191936
0.198181
0.20682
0.211714
0.213121
0.206123
0.194388
0.192576
0.196193
0.203414
0.213016
0.222181
0.229651
0.23634
0.243405
0.251831
0.263075
0.278692
0.296827
0.306809
0.309678
0.302357
0.300865
0.312662
0.333014
0.359508
0.385948
0.411507
0.440718
0.480373
0.533862
0.580019
0.618782
0.646144
0.702592
0.786949
0.910708
1.06809
1.21095
1.29464
1.33749
1.37929
1.44162
1.54052
1.60985
1.62402
1.60847
1.59485
1.60155
1.62279
1.63966
1.64134
1.6356
1.6287
1.62916
1.63303
1.63729
1.63795
1.63698
1.63465
1.63408
1.63481
1.63567
1.63624
1.6363
1.63648
1.6371
1.63836
1.64011
1.64152
1.64253
1.64358
1.64498
1.64653
1.64734
1.64758
1.64726
1.64587
1.64349
1.64156
1.64111
1.64136
1.64193
1.64307
1.64478
1.64667
1.64785
1.64821
1.64831
1.64809
1.64744
1.64645
1.64544
1.64476
1.64445
1.64433
1.64418
1.64387
1.64331
1.64252
1.64187
1.64156
1.64147
1.64179
1.64261
1.64384
1.64543
1.64701
1.64801
1.6484
1.64849
1.64833
1.64787
1.64705
1.64589
1.64444
1.64287
1.64167
1.64123
1.64119
1.64137
1.64186
1.64276
1.64411
1.64567
1.64688
1.64744
1.64761
1.64757
1.64726
1.64659
1.64549
1.64392
1.64195
1.63975
1.63778
1.63656
1.63614
1.63611
1.63627
1.6367
1.63759
1.63916
1.64154
1.64444
1.64679
1.64767
1.6478
1.64777
1.64745
1.64653
1.64464
1.64159
1.63765
1.63387
1.63151
1.63065
1.63051
1.63085
1.63178
1.63351
1.63625
1.63998
1.64435
1.64865
1.65196
1.65385
1.65467
1.65493
1.65465
1.65349
1.65092
1.64676
1.6423
1.64004
1.63962
1.63958
1.64003
1.64137
1.64396
1.64804
1.65366
1.66034
1.66662
1.6699
1.67063
1.67042
1.66982
1.66877
1.66631
1.66118
1.65245
1.64076
1.62956
1.62326
1.62194
1.62213
1.62298
1.62449
1.62577
1.62625
1.62612
1.62522
1.62349
1.61754
18.4275
0.707273
0.236336
0.231174
0.228017
0.227837
0.219852
0.201592
0.155174
0.134257
0.13368
0.136645
0.142788
0.150503
0.158682
0.167167
0.176263
0.186521
0.197991
0.208251
0.213339
0.214292
0.213096
0.207941
0.181468
0.142434
0.135673
0.136396
0.140016
0.144763
0.148792
0.152106
0.155148
0.158183
0.161285
0.16443
0.167638
0.171293
0.176576
0.184414
0.189935
0.189524
0.183748
0.159136
0.136536
0.134318
0.134952
0.13769
0.140881
0.143081
0.144524
0.145754
0.14706
0.148492
0.149935
0.151261
0.152538
0.154212
0.157426
0.162762
0.165803
0.165256
0.160188
0.143184
0.130481
0.129463
0.130033
0.132397
0.135589
0.13813
0.139997
0.14182
0.143983
0.146554
0.149418
0.152386
0.155495
0.15917
0.164474
0.172062
0.177488
0.179238
0.173621
0.159191
0.153916
0.155381
0.159011
0.164514
0.169536
0.173179
0.176057
0.178897
0.182046
0.185491
0.189241
0.19383
0.20049
0.209558
0.214174
0.215039
0.206681
0.194382
0.193
0.196513
0.203657
0.213012
0.22171
0.228655
0.234874
0.241517
0.24954
0.260328
0.275533
0.293654
0.303767
0.307224
0.300358
0.298417
0.310449
0.331088
0.35818
0.385243
0.411318
0.440845
0.480429
0.533237
0.577031
0.610982
0.630543
0.675768
0.74617
0.851123
0.987549
1.13182
1.22818
1.29378
1.34535
1.41197
1.50956
1.5972
1.62049
1.61208
1.59532
1.60022
1.61864
1.63816
1.64115
1.63688
1.62886
1.62862
1.63187
1.63693
1.63823
1.6378
1.6356
1.6344
1.6349
1.63569
1.63631
1.63649
1.63672
1.6373
1.63849
1.64025
1.64172
1.64273
1.64369
1.64495
1.64641
1.64724
1.6475
1.64723
1.64597
1.64378
1.64203
1.64165
1.64193
1.64252
1.64364
1.64523
1.64689
1.64796
1.64832
1.64843
1.64823
1.64768
1.64687
1.64608
1.64552
1.6452
1.64498
1.64474
1.64434
1.64371
1.64291
1.64228
1.64196
1.64184
1.6421
1.64284
1.64397
1.64541
1.6468
1.64758
1.64788
1.6479
1.6477
1.64724
1.64654
1.64563
1.64454
1.64335
1.64231
1.64175
1.64162
1.64171
1.64205
1.64273
1.64375
1.64493
1.64578
1.64615
1.64628
1.64622
1.64592
1.64532
1.64438
1.64308
1.6415
1.63977
1.63818
1.63714
1.63675
1.63673
1.63695
1.6375
1.63853
1.64026
1.64274
1.64552
1.64742
1.64802
1.64814
1.64809
1.64772
1.6468
1.6451
1.64254
1.63946
1.63656
1.63451
1.63344
1.6331
1.63327
1.63397
1.63535
1.63755
1.64063
1.64432
1.64781
1.65014
1.65125
1.65169
1.65169
1.6511
1.64952
1.64661
1.64254
1.63893
1.6374
1.63705
1.63698
1.6374
1.63875
1.64143
1.64563
1.65129
1.65794
1.66441
1.66873
1.67035
1.67064
1.67041
1.66976
1.66811
1.66454
1.65825
1.64923
1.63888
1.62987
1.62459
1.62321
1.62312
1.62319
1.6233
1.62309
1.62249
1.62138
1.61979
1.61542
18.4219
0.713306
0.23668
0.231427
0.228348
0.228039
0.219835
0.201305
0.154951
0.134569
0.133991
0.136929
0.143025
0.15071
0.158871
0.167316
0.17631
0.186435
0.197775
0.207917
0.212857
0.213718
0.212518
0.207439
0.181309
0.142501
0.135698
0.136408
0.140024
0.144799
0.148863
0.152204
0.155266
0.158328
0.161468
0.164667
0.167941
0.171663
0.176986
0.184703
0.189929
0.189435
0.183558
0.15888
0.136454
0.134275
0.134907
0.137635
0.140824
0.143037
0.144501
0.145752
0.14708
0.148528
0.149978
0.151295
0.152551
0.154206
0.157413
0.162691
0.165646
0.165087
0.160002
0.143093
0.130472
0.129453
0.130012
0.132341
0.135505
0.138061
0.139962
0.141809
0.144
0.146615
0.149531
0.152561
0.155742
0.159514
0.164955
0.172708
0.178187
0.179964
0.174123
0.159487
0.154385
0.155919
0.15967
0.165257
0.170334
0.174054
0.17705
0.180049
0.183388
0.187023
0.190958
0.195799
0.202856
0.212376
0.216981
0.217363
0.207655
0.194937
0.193941
0.197354
0.20435
0.213267
0.221388
0.227896
0.233797
0.240156
0.247885
0.25833
0.273205
0.291287
0.301435
0.305303
0.298716
0.296255
0.308357
0.329038
0.356415
0.384111
0.410769
0.440628
0.480039
0.531573
0.572614
0.602247
0.616023
0.652861
0.713601
0.805863
0.92796
1.06897
1.17775
1.25841
1.31926
1.39008
1.48523
1.58524
1.61706
1.61463
1.59624
1.59922
1.615
1.63632
1.64097
1.63791
1.62949
1.62839
1.63117
1.63661
1.63861
1.63853
1.63655
1.63486
1.63508
1.63583
1.63648
1.63674
1.63701
1.63756
1.6387
1.64042
1.64189
1.64287
1.64376
1.64493
1.64633
1.64721
1.64748
1.64727
1.64614
1.64414
1.64256
1.64226
1.64254
1.64313
1.64415
1.64552
1.64692
1.64788
1.64824
1.64834
1.64817
1.64773
1.64713
1.64658
1.64619
1.64593
1.64568
1.64535
1.64486
1.64416
1.64333
1.64271
1.64237
1.64222
1.64242
1.64308
1.64412
1.64544
1.64656
1.64714
1.64736
1.6473
1.64706
1.64662
1.64604
1.64534
1.64454
1.64367
1.64288
1.64235
1.64213
1.64214
1.64235
1.64284
1.64358
1.64437
1.64484
1.64504
1.64512
1.64506
1.6448
1.64429
1.64351
1.64246
1.6412
1.63986
1.63867
1.63791
1.6376
1.6376
1.63788
1.63851
1.63963
1.64143
1.64384
1.64612
1.64737
1.64784
1.64802
1.648
1.64767
1.64684
1.64537
1.64331
1.64101
1.63903
1.63758
1.63652
1.63591
1.63581
1.63619
1.63715
1.63881
1.64127
1.64421
1.64672
1.64797
1.64839
1.64846
1.64814
1.64714
1.64522
1.64222
1.63872
1.63617
1.63521
1.63494
1.63485
1.63521
1.63646
1.63906
1.64317
1.64867
1.655
1.66122
1.66618
1.66923
1.67049
1.67068
1.67034
1.6692
1.66679
1.66249
1.65612
1.64817
1.63953
1.63146
1.62563
1.62274
1.62177
1.62094
1.61999
1.6189
1.61765
1.61626
1.61338
18.4181
0.71903
0.237763
0.232249
0.229056
0.228857
0.220434
0.200843
0.153958
0.134814
0.134377
0.137443
0.143596
0.151256
0.159343
0.167692
0.176587
0.186565
0.197763
0.20791
0.212684
0.213258
0.211944
0.206681
0.18083
0.142549
0.135766
0.136464
0.140071
0.144869
0.148963
0.152319
0.155393
0.158486
0.161694
0.164989
0.168347
0.172108
0.177421
0.184976
0.189864
0.189279
0.183252
0.158507
0.136338
0.134207
0.13483
0.137543
0.140734
0.142965
0.144454
0.145734
0.147099
0.1486
0.150102
0.151454
0.152723
0.154367
0.157555
0.162806
0.165679
0.165092
0.159915
0.142953
0.130469
0.129469
0.13002
0.132311
0.135419
0.137964
0.139866
0.141704
0.143898
0.146527
0.149472
0.152562
0.155853
0.159783
0.165433
0.173409
0.178849
0.180543
0.174343
0.159456
0.154528
0.156122
0.159974
0.165599
0.170681
0.174458
0.177605
0.180808
0.184385
0.188254
0.192391
0.19746
0.204867
0.214917
0.219683
0.219763
0.208989
0.196013
0.195284
0.19863
0.20546
0.2139
0.221389
0.227443
0.233143
0.239399
0.247018
0.257327
0.272053
0.290153
0.300339
0.304334
0.297692
0.294763
0.306782
0.327352
0.354805
0.382854
0.410037
0.440144
0.479208
0.529414
0.568413
0.595476
0.606259
0.638766
0.694628
0.78043
0.894774
1.03233
1.14974
1.2382
1.30455
1.37776
1.47049
1.57697
1.61543
1.61643
1.59723
1.59812
1.61232
1.63481
1.64101
1.63882
1.63027
1.62831
1.63077
1.63642
1.63907
1.63924
1.63749
1.63547
1.63538
1.63607
1.63673
1.63706
1.63737
1.63792
1.63899
1.64063
1.64204
1.64298
1.64382
1.64495
1.64634
1.64725
1.64753
1.64739
1.64638
1.64457
1.64314
1.64289
1.64317
1.64371
1.64458
1.64571
1.64685
1.64761
1.64794
1.64803
1.64791
1.64759
1.64719
1.64689
1.64669
1.64653
1.6463
1.64591
1.64533
1.64455
1.64368
1.64307
1.64273
1.64257
1.64273
1.64331
1.64425
1.6454
1.64628
1.64672
1.64688
1.64675
1.64646
1.64605
1.64557
1.64505
1.64448
1.6439
1.64338
1.64298
1.64276
1.6427
1.64281
1.64313
1.64362
1.64401
1.64418
1.64422
1.64421
1.64411
1.64388
1.64346
1.64285
1.64208
1.64118
1.64027
1.63953
1.63904
1.63881
1.63883
1.63912
1.63975
1.64085
1.64254
1.64459
1.64617
1.64687
1.6472
1.6474
1.64744
1.64721
1.64653
1.64534
1.64378
1.64222
1.64106
1.64023
1.63947
1.63877
1.63835
1.63839
1.63894
1.6401
1.64192
1.64399
1.64522
1.64551
1.64545
1.6451
1.64431
1.64291
1.64078
1.6381
1.63565
1.63425
1.63372
1.63352
1.63341
1.63371
1.63484
1.63724
1.64109
1.64623
1.65203
1.65761
1.66233
1.66612
1.66892
1.67028
1.67038
1.66965
1.66795
1.66508
1.6609
1.65555
1.6489
1.64079
1.63206
1.62489
1.62081
1.61879
1.61723
1.61572
1.61426
1.61306
1.61167
18.4157
0.723556
0.239167
0.23328
0.229959
0.229997
0.221166
0.199887
0.152202
0.134748
0.134528
0.137837
0.144144
0.151874
0.159973
0.168266
0.177011
0.186762
0.197837
0.207989
0.212657
0.213003
0.21159
0.206157
0.180382
0.142574
0.135876
0.136569
0.140176
0.145002
0.149127
0.152501
0.155591
0.158719
0.16199
0.165345
0.168722
0.172451
0.177712
0.185118
0.189737
0.189065
0.182914
0.15821
0.136267
0.134171
0.134793
0.137504
0.140711
0.142975
0.144497
0.145811
0.147216
0.148759
0.150307
0.151715
0.153038
0.154732
0.157963
0.163185
0.165942
0.165307
0.159961
0.142795
0.130488
0.129519
0.130065
0.132331
0.135378
0.137891
0.139777
0.141586
0.143764
0.146391
0.149361
0.152506
0.155886
0.159947
0.165745
0.173847
0.179185
0.180789
0.174272
0.15915
0.154361
0.155984
0.159867
0.165482
0.170594
0.174462
0.17774
0.181117
0.184879
0.188944
0.193297
0.198609
0.206337
0.216921
0.221975
0.221978
0.210499
0.197324
0.19678
0.200138
0.206908
0.215009
0.22191
0.227529
0.232954
0.239138
0.246796
0.257182
0.271943
0.290068
0.300247
0.304139
0.297258
0.294038
0.305952
0.326433
0.353771
0.381839
0.409195
0.439426
0.478285
0.527947
0.56615
0.592315
0.602197
0.63316
0.687455
0.770839
0.882047
1.01777
1.13953
1.2312
1.29944
1.3733
1.46427
1.57314
1.61524
1.61757
1.59766
1.59729
1.61087
1.63409
1.64135
1.63956
1.63085
1.62827
1.6306
1.63642
1.63962
1.63997
1.63839
1.63617
1.63581
1.63644
1.6371
1.63747
1.63781
1.63835
1.63934
1.64085
1.64215
1.64303
1.64386
1.64499
1.64639
1.64735
1.64764
1.64755
1.64667
1.64505
1.64374
1.64349
1.64374
1.64421
1.64493
1.64584
1.64667
1.64717
1.64741
1.64749
1.64744
1.64728
1.64711
1.64701
1.64699
1.64696
1.64679
1.64639
1.64575
1.64488
1.64397
1.64337
1.64302
1.64287
1.64301
1.64354
1.64439
1.64536
1.64603
1.64636
1.64645
1.64626
1.64594
1.64556
1.64518
1.64482
1.64448
1.64417
1.64389
1.64366
1.64351
1.64345
1.64349
1.64365
1.64385
1.64387
1.64382
1.64371
1.64355
1.64338
1.64317
1.64288
1.64248
1.64197
1.64143
1.64098
1.64064
1.64041
1.64029
1.64033
1.6406
1.64117
1.64213
1.64352
1.64498
1.64584
1.6462
1.6464
1.6465
1.64647
1.64626
1.64574
1.64489
1.64386
1.64308
1.64261
1.64226
1.64189
1.6414
1.6409
1.64063
1.64077
1.64142
1.64249
1.64337
1.64344
1.64318
1.64261
1.64171
1.64039
1.63858
1.63646
1.6346
1.63353
1.63311
1.63292
1.63271
1.63258
1.63286
1.63392
1.63612
1.63958
1.64416
1.64929
1.65412
1.65822
1.66173
1.66499
1.66782
1.6693
1.66922
1.66814
1.66623
1.66368
1.6605
1.65623
1.64993
1.64109
1.63084
1.62232
1.61762
1.61515
1.61312
1.61147
1.61049
1.61042
18.4088
0.726703
0.240316
0.234186
0.230507
0.230668
0.221595
0.198698
0.150542
0.13474
0.134687
0.138182
0.1446
0.152374
0.160484
0.168755
0.177418
0.187055
0.198046
0.208122
0.212621
0.212899
0.211516
0.206081
0.180284
0.14267
0.13606
0.136762
0.140385
0.145227
0.149363
0.152736
0.155821
0.158938
0.162193
0.165524
0.168878
0.172587
0.17784
0.185174
0.189607
0.188899
0.182733
0.158145
0.136298
0.13421
0.134827
0.137536
0.140754
0.143039
0.144584
0.145926
0.147363
0.148952
0.150572
0.152066
0.153467
0.155248
0.158586
0.163823
0.16645
0.165752
0.160157
0.142677
0.130582
0.12965
0.130187
0.13243
0.135413
0.137856
0.139713
0.141498
0.14363
0.146224
0.149196
0.152381
0.155818
0.159928
0.165734
0.173798
0.179086
0.180679
0.173956
0.158663
0.153945
0.155591
0.159506
0.165146
0.170317
0.1743
0.177693
0.181182
0.185068
0.189285
0.193831
0.199363
0.207308
0.218284
0.223678
0.223795
0.212015
0.1986
0.198153
0.201644
0.20852
0.216499
0.223082
0.22835
0.233527
0.239506
0.24705
0.257433
0.272273
0.290374
0.300426
0.304071
0.296972
0.293838
0.305739
0.326143
0.353305
0.381215
0.408541
0.438871
0.477862
0.527556
0.565639
0.591659
0.601523
0.632384
0.686485
0.769143
0.879724
1.01481
1.13784
1.23049
1.29922
1.37297
1.4633
1.57222
1.6151
1.61785
1.59773
1.59717
1.61071
1.63407
1.64159
1.6399
1.63103
1.62832
1.63068
1.63667
1.64021
1.64066
1.63918
1.63686
1.63635
1.63691
1.63755
1.63791
1.63827
1.6388
1.63971
1.64106
1.64223
1.64305
1.64386
1.645
1.64644
1.64746
1.64775
1.64771
1.64696
1.64554
1.64433
1.64401
1.64422
1.64461
1.64519
1.64586
1.64635
1.6466
1.6467
1.64673
1.64676
1.64682
1.64689
1.64699
1.6471
1.64717
1.64708
1.64672
1.64606
1.64513
1.64417
1.64358
1.64322
1.64309
1.64325
1.64374
1.64452
1.64532
1.64586
1.64614
1.64614
1.64589
1.64553
1.64516
1.64488
1.64471
1.64462
1.64455
1.64449
1.64445
1.64443
1.64445
1.64448
1.64443
1.64425
1.644
1.64371
1.64341
1.64314
1.6429
1.64269
1.64253
1.64235
1.64216
1.64205
1.64198
1.64192
1.64189
1.64189
1.64198
1.64224
1.6427
1.64342
1.64431
1.64497
1.64522
1.64535
1.64538
1.64531
1.64512
1.64483
1.64444
1.64398
1.64362
1.64362
1.64365
1.64367
1.64363
1.64348
1.64321
1.64286
1.64259
1.64254
1.64255
1.64228
1.64174
1.64092
1.63982
1.63837
1.63654
1.6345
1.63285
1.63224
1.63237
1.6326
1.63262
1.63252
1.63245
1.63274
1.63374
1.63574
1.6388
1.64269
1.64696
1.65092
1.65427
1.65719
1.66004
1.66296
1.6656
1.66716
1.66721
1.66617
1.66477
1.66316
1.66094
1.65704
1.65018
1.63982
1.62784
1.6186
1.61394
1.61144
1.61008
1.60938
1.60976
18.4003
0.72951
0.240651
0.234445
0.230628
0.230734
0.221302
0.197312
0.149344
0.13468
0.134742
0.138323
0.144764
0.152526
0.160643
0.168929
0.177588
0.187186
0.198142
0.208337
0.213026
0.213302
0.211859
0.206341
0.180438
0.142772
0.136204
0.136918
0.140563
0.145406
0.149522
0.152872
0.155943
0.159057
0.162307
0.165627
0.168963
0.172648
0.177847
0.185128
0.189591
0.188911
0.182818
0.158305
0.136441
0.134343
0.134961
0.137679
0.140919
0.143226
0.144793
0.146158
0.147623
0.149244
0.150902
0.152451
0.153941
0.155838
0.159341
0.16466
0.167171
0.166397
0.160502
0.142632
0.130788
0.129903
0.130432
0.132665
0.135584
0.137936
0.139747
0.141511
0.143578
0.146093
0.148981
0.15207
0.15541
0.159453
0.165227
0.173241
0.178496
0.180092
0.173332
0.158006
0.153282
0.154965
0.158936
0.164664
0.169957
0.174081
0.177607
0.181196
0.185183
0.189513
0.194178
0.199799
0.207831
0.219014
0.224706
0.225095
0.213447
0.199759
0.199302
0.202985
0.210104
0.218248
0.224873
0.230063
0.235057
0.240814
0.248179
0.258518
0.273361
0.291083
0.300787
0.303969
0.296723
0.29396
0.305952
0.326282
0.353243
0.380971
0.408285
0.438737
0.478155
0.528268
0.566608
0.593034
0.603538
0.635351
0.690176
0.77391
0.88501
1.02024
1.14182
1.23363
1.30282
1.3764
1.46702
1.57397
1.61455
1.61666
1.59752
1.59787
1.61181
1.63482
1.64166
1.63969
1.6309
1.62859
1.6311
1.63725
1.64077
1.64123
1.63982
1.6375
1.63699
1.63751
1.63808
1.63837
1.63866
1.63917
1.64001
1.64123
1.64227
1.64302
1.6438
1.64495
1.64643
1.64751
1.64782
1.64783
1.6472
1.64598
1.64489
1.64452
1.64461
1.64489
1.6453
1.6457
1.64589
1.64594
1.64589
1.64585
1.64595
1.64622
1.64659
1.64684
1.64704
1.64717
1.64715
1.64687
1.64625
1.64529
1.6443
1.64369
1.64333
1.64322
1.64339
1.64387
1.6446
1.64527
1.64575
1.64598
1.64591
1.64563
1.64521
1.64488
1.64477
1.64477
1.64489
1.6451
1.64529
1.64545
1.64558
1.64565
1.64561
1.64537
1.64493
1.64437
1.64381
1.64331
1.64291
1.64259
1.6424
1.64237
1.64249
1.64269
1.64291
1.64309
1.64321
1.64331
1.64342
1.6436
1.6439
1.6443
1.64468
1.64482
1.64479
1.64471
1.64452
1.64424
1.64384
1.64335
1.6429
1.64268
1.6428
1.64321
1.64372
1.64425
1.64463
1.64489
1.64503
1.64501
1.64473
1.64413
1.6432
1.64215
1.64106
1.63991
1.6386
1.63702
1.63509
1.63298
1.6313
1.63069
1.63081
1.63143
1.63237
1.63297
1.63314
1.63323
1.63358
1.63453
1.63631
1.63891
1.64201
1.64517
1.64797
1.65042
1.65267
1.65489
1.65721
1.65971
1.66223
1.66414
1.66493
1.66468
1.66404
1.66317
1.66129
1.65707
1.6491
1.63714
1.62426
1.61559
1.61176
1.61025
1.60936
1.60989
18.4006
0.731413
0.2405
0.234231
0.230287
0.230344
0.220749
0.196473
0.148739
0.13444
0.134561
0.138185
0.144661
0.152437
0.160543
0.168815
0.177495
0.187144
0.198122
0.208407
0.213395
0.213982
0.21262
0.207124
0.180883
0.142864
0.136353
0.137105
0.140797
0.145637
0.149725
0.153053
0.156106
0.159195
0.162407
0.165679
0.168961
0.172591
0.177749
0.185124
0.189801
0.189193
0.18318
0.158727
0.136734
0.134606
0.135231
0.137966
0.141224
0.143543
0.145123
0.146508
0.147998
0.149647
0.151328
0.1529
0.154436
0.156438
0.160132
0.165597
0.168036
0.167193
0.160983
0.142723
0.13115
0.130319
0.130851
0.133088
0.135951
0.138171
0.13987
0.141551
0.14351
0.145886
0.14861
0.151525
0.154699
0.158596
0.164235
0.172089
0.177258
0.178854
0.172211
0.157078
0.152342
0.15409
0.158112
0.163932
0.16937
0.173627
0.177266
0.180984
0.185106
0.189548
0.194279
0.19992
0.207971
0.219234
0.225139
0.225939
0.21483
0.200919
0.200319
0.204199
0.211619
0.220145
0.227122
0.232545
0.237644
0.243383
0.250703
0.261137
0.276103
0.293284
0.302344
0.304574
0.296819
0.294759
0.306811
0.32721
0.353891
0.381274
0.408485
0.439247
0.479508
0.530987
0.57065
0.598756
0.611621
0.646838
0.705014
0.792834
0.908095
1.0447
1.1596
1.24651
1.31366
1.38627
1.47899
1.58049
1.61537
1.6151
1.59703
1.59939
1.61458
1.63649
1.64188
1.63924
1.63057
1.62911
1.63194
1.63823
1.64136
1.64165
1.64011
1.63801
1.6377
1.63818
1.63863
1.63873
1.63888
1.63935
1.64018
1.64133
1.64225
1.64291
1.64365
1.64481
1.64635
1.64752
1.64784
1.64789
1.64738
1.64634
1.64541
1.64503
1.64499
1.64507
1.64523
1.64536
1.64535
1.64521
1.64504
1.64501
1.64518
1.64557
1.64613
1.64662