/*--------------------------------*- C++ -*----------------------------------*\
| =========                 |                                                 |
| \\      /  F ield         | OpenFOAM: The Open Source CFD Toolbox           |
|  \\    /   O peration     | Version:  2306                                  |
|   \\  /    A nd           | Website:  www.openfoam.com                      |
|    \\/     M anipulation  |                                                 |
\*---------------------------------------------------------------------------*/
FoamFile
{
    version     2.0;
    format      ascii;
    arch        "LSB;label=32;scalar=64";
    class       volVectorField;
    location    "0.07";
    object      U;
}
// * * * * * * * * * * * * * * * * * * * * * * * * * * * * * * * * * * * * * //

dimensions      [0 1 -1 0 0 0 0];

internalField   nonuniform List<vector> 
6000
(
(500 3.06947e-14 0)
(500 3.53489e-14 0)
(500 8.6059e-14 0)
(500 -1.5529e-14 0)
(500 -9.45819e-15 0)
(500 -4.92348e-15 0)
(500 1.33191e-14 0)
(500 2.36888e-14 0)
(500 -6.45188e-14 0)
(500 -1.72821e-13 0)
(500 -1.51129e-13 0)
(500 -1.63394e-13 0)
(500 -1.88352e-13 0)
(500 -2.05439e-13 0)
(500 5.25393e-15 0)
(500 1.71883e-13 0)
(500 1.5806e-13 0)
(500 9.16785e-14 0)
(500 -2.82278e-14 0)
(500 -1.92198e-13 0)
(500 -1.1712e-13 0)
(500 -1.14903e-12 0)
(500 4.52388e-12 0)
(500 -1.41131e-11 0)
(500 4.83688e-11 0)
(500 -1.29406e-10 0)
(500 8.96803e-10 0)
(500 -3.21253e-09 0)
(500 1.77713e-08 0)
(499.999 -5.72025e-08 0)
(499.998 1.03718e-07 0)
(499.994 -3.46615e-08 0)
(499.982 -1.81284e-06 0)
(499.952 5.80996e-06 0)
(499.883 -7.12593e-06 0)
(499.741 8.66945e-06 0)
(499.501 8.70964e-06 0)
(499.24 -4.25532e-05 0)
(499.135 -3.55351e-06 0)
(499.137 1.64926e-06 0)
(499.18 3.67532e-05 0)
(499.317 0.000284247 0)
(499.586 -0.00101508 0)
(499.99 0.000354408 0)
(500.498 0.00395018 0)
(501.07 -0.0031885 0)
(501.663 -0.00497187 0)
(502.235 0.00820165 0)
(502.761 0.00726283 0)
(503.237 -0.00858532 0)
(503.648 -0.00637016 0)
(503.975 0.00899601 0)
(504.227 0.00895849 0)
(504.428 -0.00398489 0)
(504.588 -0.00741738 0)
(504.716 -0.00118042 0)
(504.816 0.00613034 0)
(504.9 0.00429694 0)
(504.978 -0.00217454 0)
(505.048 -0.00427794 0)
(505.11 -0.00192022 0)
(505.162 0.00227588 0)
(505.207 0.0030231 0)
(505.252 -0.000524021 0)
(505.29 -0.00189946 0)
(505.312 -0.00170807 0)
(505.318 -4.94051e-05 0)
(505.317 0.000954875 0)
(505.315 0.000558314 0)
(505.313 -0.000209096 0)
(505.307 -0.000700991 0)
(505.297 -0.000657664 0)
(505.281 -0.000228518 0)
(505.261 0.000431254 0)
(505.238 0.000686215 0)
(505.216 -0.000147211 0)
(505.197 -0.000913883 0)
(505.182 -0.00024593 0)
(505.17 0.000531518 0)
(505.159 0.000472399 0)
(505.15 -9.37212e-05 0)
(505.143 -0.000522491 0)
(505.136 -0.000266523 0)
(505.13 0.000232913 0)
(505.125 0.000372516 0)
(505.121 0.000133319 0)
(505.119 -0.000220118 0)
(505.117 -0.000203639 0)
(505.114 -5.88588e-06 0)
(505.112 8.97175e-05 0)
(505.11 8.28149e-05 0)
(505.109 5.91531e-05 0)
(505.109 -2.77156e-05 0)
(505.109 -7.59118e-05 0)
(505.11 -4.70388e-05 0)
(505.111 1.01192e-05 0)
(505.114 5.96118e-05 0)
(505.119 3.68865e-05 0)
(505.126 -2.63467e-05 0)
(505.134 8.87532e-06 0)
(505.144 -1.83956e-05 0)
(505.153 -8.45578e-05 0)
(505.163 9.34992e-05 0)
(505.171 0.000221885 0)
(505.179 -1.52523e-05 0)
(505.186 -0.000206337 0)
(505.192 -4.32207e-05 0)
(505.198 0.000197012 0)
(505.202 9.13033e-05 0)
(505.204 -7.725e-05 0)
(505.204 -0.000107306 0)
(505.204 -7.30215e-05 0)
(505.203 2.49028e-05 0)
(505.202 6.12103e-05 0)
(505.199 4.93834e-05 0)
(505.195 3.74138e-05 0)
(505.188 -5.75888e-05 0)
(505.182 -0.000101948 0)
(505.175 8.039e-05 0)
(505.169 0.000139968 0)
(505.163 -3.16663e-05 0)
(505.159 -9.44832e-05 0)
(505.156 -4.78081e-05 0)
(505.153 3.23701e-05 0)
(505.15 5.01522e-05 0)
(505.148 -9.41916e-06 0)
(505.146 -6.65344e-05 0)
(505.144 -6.57736e-05 0)
(505.142 -4.62505e-05 0)
(505.14 -2.14692e-05 0)
(505.138 1.39652e-06 0)
(505.135 6.21817e-06 0)
(505.132 1.15675e-05 0)
(505.126 -1.92082e-06 0)
(505.119 -9.03184e-06 0)
(505.113 2.84696e-05 0)
(505.11 2.99595e-05 0)
(505.11 2.03947e-05 0)
(505.111 2.21814e-05 0)
(505.113 3.26162e-05 0)
(505.118 3.17768e-05 0)
(505.127 -5.27361e-05 0)
(505.137 4.6803e-05 0)
(505.148 0.000103512 0)
(505.158 -0.000142329 0)
(505.166 -0.000127641 0)
(505.171 1.84702e-05 0)
(505.174 8.72818e-05 0)
(505.177 2.70389e-05 0)
(505.181 -4.37651e-05 0)
(505.185 -4.04539e-05 0)
(505.19 9.13661e-06 0)
(505.195 5.76767e-05 0)
(505.199 0.00012192 0)
(505.201 0.000129053 0)
(505.201 0.000104566 0)
(505.201 5.74949e-05 0)
(505.201 -1.48415e-06 0)
(505.201 -6.1752e-05 0)
(505.199 -9.09013e-05 0)
(505.195 -9.42459e-05 0)
(505.19 -9.05377e-05 0)
(505.184 -9.3191e-05 0)
(505.177 -0.000102298 0)
(505.171 -0.000121778 0)
(505.165 -0.00010336 0)
(505.161 3.67254e-05 0)
(505.157 9.9652e-05 0)
(505.154 0.000117395 0)
(505.151 0.000121142 0)
(505.149 0.000108021 0)
(505.148 4.73374e-05 0)
(505.147 -3.28384e-06 0)
(505.146 -2.79697e-05 0)
(505.144 -5.0375e-05 0)
(505.143 -7.85773e-05 0)
(505.141 -9.50053e-05 0)
(505.139 -9.48803e-05 0)
(505.137 -9.38493e-05 0)
(505.135 -9.12749e-05 0)
(505.131 -5.4327e-05 0)
(505.125 -1.63434e-05 0)
(505.117 4.2988e-05 0)
(505.109 9.88932e-05 0)
(505.105 0.000103443 0)
(505.105 9.58947e-05 0)
(505.107 6.35936e-05 0)
(505.11 5.87175e-05 0)
(505.115 2.91993e-05 0)
(505.124 -5.35142e-05 0)
(505.136 2.32506e-05 0)
(505.149 1.73713e-05 0)
(505.16 -0.000156675 0)
(505.169 -0.000180958 0)
(505.174 -8.80372e-05 0)
(505.177 3.83642e-05 0)
(505.179 6.89317e-05 0)
(505.182 5.93937e-05 0)
(505.185 4.22191e-05 0)
(505.189 4.44701e-05 0)
(505.193 6.81542e-05 0)
(505.197 7.99831e-05 0)
(505.201 4.76378e-05 0)
(505.205 -1.32151e-05 0)
(505.206 -2.02318e-05 0)
(505.206 -2.89089e-05 0)
(505.206 -3.42079e-05 0)
(505.205 -4.89582e-05 0)
(505.203 -6.89987e-05 0)
(505.199 -7.76586e-05 0)
(505.193 -6.64349e-05 0)
(505.186 -1.77001e-05 0)
(505.179 5.22009e-05 0)
(505.171 8.43665e-05 0)
(505.166 4.13753e-05 0)
(505.162 -1.21086e-05 0)
(505.157 -1.19263e-05 0)
(505.154 6.46095e-06 0)
(505.151 2.56705e-05 0)
(505.149 2.5521e-05 0)
(505.147 9.35967e-06 0)
(505.146 -3.50816e-05 0)
(505.145 -5.28062e-05 0)
(505.144 -4.76859e-05 0)
(505.142 -1.45157e-05 0)
(505.14 2.08304e-05 0)
(505.138 3.30644e-05 0)
(505.135 3.61488e-05 0)
(505.132 1.58519e-05 0)
(505.129 -3.18627e-05 0)
(505.123 -6.19343e-05 0)
(505.116 -6.1391e-05 0)
(505.107 -5.89596e-05 0)
(505.098 -5.98549e-05 0)
(505.095 -8.25924e-05 0)
(505.095 -6.71433e-05 0)
(505.096 3.73153e-05 0)
(505.099 0.000107189 0)
(505.107 0.000149013 0)
(505.119 0.000152451 0)
(505.134 0.000102384 0)
(505.15 0.000199914 0)
(505.163 0.00024393 0)
(505.172 0.000163896 0)
(505.177 -9.71108e-05 0)
(505.181 -0.000219577 0)
(505.185 -0.000240505 0)
(505.188 -0.000154236 0)
(505.192 -7.04825e-05 0)
(505.196 -7.11623e-05 0)
(505.2 -0.0001146 0)
(505.204 -0.000124053 0)
(505.208 2.61769e-05 0)
(505.211 0.000228916 0)
(505.213 0.000280374 0)
(505.214 0.000320342 0)
(505.214 0.000306707 0)
(505.213 0.000227657 0)
(505.213 8.60152e-05 0)
(505.21 -6.40725e-05 0)
(505.205 -0.000137296 0)
(505.198 -0.000170134 0)
(505.19 -0.000207789 0)
(505.183 -0.000288463 0)
(505.175 -0.000323617 0)
(505.169 -0.000319039 0)
(505.163 -0.00024074 0)
(505.157 -4.19529e-05 0)
(505.152 0.000213895 0)
(505.148 0.00036144 0)
(505.144 0.00039827 0)
(505.141 0.000420388 0)
(505.139 0.000353429 0)
(505.139 0.000207641 0)
(505.137 0.000106673 0)
(505.134 6.88285e-06 0)
(505.13 -0.00010136 0)
(505.126 -0.000239203 0)
(505.121 -0.000433967 0)
(505.116 -0.000500741 0)
(505.107 -0.000450639 0)
(505.095 -0.000487214 0)
(505.082 -0.000288199 0)
(505.073 -0.000105676 0)
(505.071 0.000199243 0)
(505.072 0.000403501 0)
(505.075 0.000437948 0)
(505.085 0.00044546 0)
(505.101 0.000433155 0)
(505.122 0.000459478 0)
(505.143 0.000359517 0)
(505.161 1.83306e-05 0)
(505.173 -0.000154456 0)
(505.181 -0.00020337 0)
(505.186 -0.000270314 0)
(505.189 -0.000379107 0)
(505.191 -0.000452233 0)
(505.195 -0.000337436 0)
(505.199 -0.000217137 0)
(505.207 -0.000140975 0)
(500 1.27927e-13 0)
(500 1.60828e-13 0)
(500 7.36993e-14 0)
(500 -2.8398e-13 0)
(500 -7.95383e-14 0)
(500 -9.1694e-14 0)
(500 -7.02029e-14 0)
(500 3.68404e-14 0)
(500 -1.22733e-13 0)
(500 -2.13963e-13 0)
(500 -2.18887e-13 0)
(500 -2.42831e-13 0)
(500 -1.46849e-13 0)
(500 -1.44795e-13 0)
(500 1.0733e-13 0)
(500 3.61708e-13 0)
(500 3.13925e-13 0)
(500 -1.91897e-14 0)
(500 -1.26251e-13 0)
(500 -2.91517e-13 0)
(500 6.16567e-15 0)
(500 -2.66392e-12 0)
(500 9.39297e-12 0)
(500 -3.3565e-11 0)
(500 9.19428e-11 0)
(500 -4.59466e-10 0)
(500 3.24788e-09 0)
(500 -2.137e-08 0)
(500 9.62169e-08 0)
(499.999 -3.15715e-07 0)
(499.998 7.50677e-07 0)
(499.994 -6.30045e-07 0)
(499.982 -2.46435e-06 0)
(499.952 1.47998e-05 0)
(499.883 -3.78388e-05 0)
(499.741 4.49543e-05 0)
(499.501 1.43961e-05 0)
(499.24 -7.71703e-05 0)
(499.135 3.51992e-06 0)
(499.137 1.52901e-05 0)
(499.18 6.78074e-05 0)
(499.317 0.000175144 0)
(499.586 -0.000982867 0)
(499.989 0.00082202 0)
(500.499 0.00296282 0)
(501.072 -0.00423135 0)
(501.662 -0.00395527 0)
(502.233 0.00908628 0)
(502.765 0.00485223 0)
(503.241 -0.0107419 0)
(503.646 -0.0055246 0)
(503.971 0.0108605 0)
(504.23 0.00795804 0)
(504.434 -0.00523939 0)
(504.589 -0.00861116 0)
(504.714 -0.000150072 0)
(504.814 0.00723803 0)
(504.903 0.00465888 0)
(504.982 -0.00227269 0)
(505.049 -0.00519986 0)
(505.109 -0.00195214 0)
(505.161 0.00321547 0)
(505.208 0.00363035 0)
(505.254 -5.5654e-05 0)
(505.291 -0.00237873 0)
(505.312 -0.00178871 0)
(505.317 0.000131827 0)
(505.317 0.00130268 0)
(505.316 0.00107017 0)
(505.313 -1.53942e-05 0)
(505.308 -0.00087461 0)
(505.297 -0.000926557 0)
(505.281 -0.000219957 0)
(505.261 0.000795237 0)
(505.238 0.000958769 0)
(505.216 -0.000207776 0)
(505.197 -0.000967351 0)
(505.182 -0.000291022 0)
(505.17 0.00055186 0)
(505.159 0.000526604 0)
(505.15 -0.000133948 0)
(505.143 -0.000570514 0)
(505.136 -0.000321655 0)
(505.13 0.000195418 0)
(505.125 0.000360344 0)
(505.122 0.000104184 0)
(505.119 -0.000227877 0)
(505.117 -0.000218839 0)
(505.114 1.12481e-05 0)
(505.112 0.000167911 0)
(505.11 9.91946e-05 0)
(505.109 4.56959e-05 0)
(505.109 -7.24688e-05 0)
(505.109 -0.000128286 0)
(505.11 -6.70286e-05 0)
(505.111 8.10479e-06 0)
(505.114 4.48637e-05 0)
(505.119 2.0142e-05 0)
(505.126 -3.29881e-05 0)
(505.134 -2.87351e-05 0)
(505.144 -6.2875e-05 0)
(505.154 -6.55759e-05 0)
(505.163 0.000204918 0)
(505.171 0.00026578 0)
(505.179 -4.13499e-05 0)
(505.186 -0.000224248 0)
(505.192 -5.96312e-05 0)
(505.198 0.00023993 0)
(505.202 0.000145411 0)
(505.204 -0.000126517 0)
(505.204 -0.00017704 0)
(505.204 -0.000146287 0)
(505.204 -1.65516e-05 0)
(505.202 3.60154e-05 0)
(505.199 2.27473e-05 0)
(505.195 4.2727e-06 0)
(505.189 -8.52444e-05 0)
(505.182 -9.45886e-05 0)
(505.175 0.000146955 0)
(505.169 0.000210088 0)
(505.163 5.89804e-06 0)
(505.159 -8.28968e-05 0)
(505.156 -4.13016e-05 0)
(505.153 7.37937e-05 0)
(505.15 0.000123582 0)
(505.148 3.47446e-05 0)
(505.146 -8.97798e-05 0)
(505.144 -0.000125553 0)
(505.142 -0.00011838 0)
(505.14 -0.000101143 0)
(505.138 -6.38145e-05 0)
(505.135 -2.48537e-05 0)
(505.132 -6.43501e-06 0)
(505.126 -1.00649e-05 0)
(505.119 -3.58489e-05 0)
(505.113 2.89241e-05 0)
(505.11 4.87891e-05 0)
(505.11 5.57303e-05 0)
(505.111 6.70468e-05 0)
(505.113 0.000113925 0)
(505.118 0.000119693 0)
(505.127 3.32991e-05 0)
(505.137 0.00014176 0)
(505.148 0.000181824 0)
(505.158 -0.000207547 0)
(505.166 -0.00029492 0)
(505.171 -0.00012198 0)
(505.174 -9.99527e-06 0)
(505.178 -3.00501e-05 0)
(505.181 -0.000117095 0)
(505.185 -0.000178304 0)
(505.19 -0.000146264 0)
(505.195 -8.6891e-05 0)
(505.199 0.000139108 0)
(505.201 0.000275897 0)
(505.201 0.000310684 0)
(505.201 0.000301269 0)
(505.201 0.000242152 0)
(505.2 9.26341e-05 0)
(505.199 -4.78804e-05 0)
(505.195 -0.000121971 0)
(505.19 -0.00015161 0)
(505.184 -0.000189596 0)
(505.177 -0.000221992 0)
(505.171 -0.000268659 0)
(505.165 -0.000292927 0)
(505.161 -0.000160453 0)
(505.157 -5.07309e-05 0)
(505.154 0.000125996 0)
(505.151 0.000260988 0)
(505.149 0.000382296 0)
(505.147 0.000411797 0)
(505.147 0.000196342 0)
(505.146 9.41756e-05 0)
(505.144 4.89846e-05 0)
(505.143 -2.32602e-05 0)
(505.141 -8.6019e-05 0)
(505.139 -0.000135159 0)
(505.137 -0.000170115 0)
(505.134 -0.000229311 0)
(505.131 -0.000220948 0)
(505.125 -0.00024229 0)
(505.117 -0.000178746 0)
(505.109 3.47619e-05 0)
(505.106 0.000220577 0)
(505.105 0.000314945 0)
(505.107 0.000300972 0)
(505.109 0.000229809 0)
(505.115 0.000184353 0)
(505.124 4.34249e-05 0)
(505.136 0.000113585 0)
(505.149 0.00018581 0)
(505.16 -0.00013288 0)
(505.169 -0.000323845 0)
(505.174 -0.000301168 0)
(505.177 -0.000193904 0)
(505.18 -0.000100371 0)
(505.182 -6.90049e-05 0)
(505.185 3.40433e-06 0)
(505.189 0.000126184 0)
(505.193 0.000178662 0)
(505.197 0.000173088 0)
(505.201 8.90083e-05 0)
(505.205 4.5717e-06 0)
(505.206 6.69505e-05 0)
(505.206 8.17e-05 0)
(505.206 4.56458e-05 0)
(505.205 -5.4009e-05 0)
(505.203 -0.000164969 0)
(505.199 -0.00027689 0)
(505.193 -0.000277129 0)
(505.186 -0.000195874 0)
(505.179 1.09223e-05 0)
(505.171 0.000259095 0)
(505.166 0.000292744 0)
(505.161 -1.25142e-06 0)
(505.157 -7.48655e-05 0)
(505.154 -8.0741e-05 0)
(505.151 -3.38167e-05 0)
(505.149 5.86673e-05 0)
(505.147 6.71936e-05 0)
(505.146 2.29038e-05 0)
(505.145 -4.18229e-05 0)
(505.144 -9.09654e-05 0)
(505.142 -7.71716e-05 0)
(505.14 2.45883e-05 0)
(505.138 7.78918e-05 0)
(505.135 0.000154706 0)
(505.132 0.000191139 0)
(505.128 4.40233e-05 0)
(505.123 -0.000103746 0)
(505.116 -9.7837e-05 0)
(505.107 -0.000145204 0)
(505.098 -0.000184821 0)
(505.095 -0.000221023 0)
(505.095 -0.00019795 0)
(505.096 -0.00012036 0)
(505.099 -9.04386e-05 0)
(505.107 -4.12956e-05 0)
(505.119 7.92182e-05 0)
(505.134 0.000127661 0)
(505.15 0.000503329 0)
(505.163 0.000801394 0)
(505.172 0.000801593 0)
(505.177 0.000337019 0)
(505.181 -0.000218916 0)
(505.185 -0.000417918 0)
(505.188 -0.000397322 0)
(505.192 -0.000291546 0)
(505.196 -0.000255725 0)
(505.2 -0.000351698 0)
(505.204 -0.000559713 0)
(505.208 -0.000553025 0)
(505.211 -0.000119586 0)
(505.213 0.000215968 0)
(505.214 0.000456235 0)
(505.214 0.000702391 0)
(505.214 0.000945713 0)
(505.213 0.000912051 0)
(505.21 0.000446197 0)
(505.205 9.97892e-05 0)
(505.198 -5.278e-05 0)
(505.19 -0.000167968 0)
(505.182 -0.000420057 0)
(505.175 -0.000680553 0)
(505.168 -0.000833532 0)
(505.162 -0.000966624 0)
(505.157 -0.000920368 0)
(505.152 -0.000493946 0)
(505.148 5.76844e-05 0)
(505.144 0.000482192 0)
(505.141 0.000846114 0)
(505.139 0.00119547 0)
(505.138 0.00103275 0)
(505.137 0.000644222 0)
(505.134 0.000494041 0)
(505.13 0.000412057 0)
(505.126 0.00033012 0)
(505.121 5.89443e-05 0)
(505.115 -0.000395821 0)
(505.106 -0.000768605 0)
(505.095 -0.00114115 0)
(505.082 -0.00120916 0)
(505.074 -0.00112919 0)
(505.072 -0.00065156 0)
(505.072 3.42652e-05 0)
(505.076 0.000335687 0)
(505.085 0.000787603 0)
(505.101 0.0011065 0)
(505.122 0.00121758 0)
(505.143 0.00107606 0)
(505.161 0.000610914 0)
(505.173 0.000434213 0)
(505.18 0.000423521 0)
(505.185 0.00023816 0)
(505.188 -0.000290826 0)
(505.19 -0.000954617 0)
(505.195 -0.00101296 0)
(505.199 -0.000834891 0)
(505.208 -0.000678426 0)
(500 5.82513e-14 0)
(500 -3.61576e-14 0)
(500 -1.45482e-13 0)
(500 -3.54432e-13 0)
(500 -1.40952e-13 0)
(500 -9.43747e-14 0)
(500 -6.98362e-14 0)
(500 2.2392e-13 0)
(500 2.77038e-14 0)
(500 -6.92843e-14 0)
(500 -4.93797e-14 0)
(500 -1.21163e-13 0)
(500 -1.26787e-13 0)
(500 -1.79638e-14 0)
(500 1.70194e-13 0)
(500 2.40107e-13 0)
(500 2.60731e-13 0)
(500 -5.50343e-14 0)
(500 -3.48208e-13 0)
(500 -5.36219e-13 0)
(500 4.28462e-14 0)
(500 -4.04126e-12 0)
(500 1.4043e-11 0)
(500 -4.62849e-11 0)
(500 1.32337e-10 0)
(500 -7.05855e-10 0)
(500 5.27613e-09 0)
(500 -3.35719e-08 0)
(500 1.54922e-07 0)
(499.999 -5.32553e-07 0)
(499.998 1.19752e-06 0)
(499.994 -1.05859e-06 0)
(499.982 -4.33324e-06 0)
(499.952 2.43177e-05 0)
(499.883 -6.04313e-05 0)
(499.741 7.37876e-05 0)
(499.501 1.95433e-05 0)
(499.24 -0.00012629 0)
(499.135 1.09245e-05 0)
(499.137 3.15997e-05 0)
(499.18 0.000126058 0)
(499.317 1.27263e-05 0)
(499.586 -0.00103924 0)
(499.989 0.00193576 0)
(500.499 0.0018484 0)
(501.072 -0.00657052 0)
(501.661 -0.000860329 0)
(502.231 0.0112743 0)
(502.767 0.000181121 0)
(503.242 -0.0138833 0)
(503.645 -0.00092237 0)
(503.969 0.0135699 0)
(504.232 0.00487897 0)
(504.435 -0.00863873 0)
(504.589 -0.00876277 0)
(504.713 0.00304217 0)
(504.813 0.00816976 0)
(504.904 0.00342404 0)
(504.983 -0.00380262 0)
(505.05 -0.00576814 0)
(505.109 -0.000861034 0)
(505.161 0.00425635 0)
(505.209 0.00334602 0)
(505.255 -0.000693949 0)
(505.292 -0.00288931 0)
(505.313 -0.00188996 0)
(505.317 0.000639943 0)
(505.317 0.00156634 0)
(505.316 0.00126899 0)
(505.314 -0.000121115 0)
(505.308 -0.00113432 0)
(505.297 -0.00102653 0)
(505.281 -9.42599e-05 0)
(505.261 0.00104839 0)
(505.238 0.00101254 0)
(505.216 -0.000435413 0)
(505.197 -0.00106717 0)
(505.182 -0.000199529 0)
(505.17 0.000708453 0)
(505.159 0.00057364 0)
(505.151 -0.000280208 0)
(505.143 -0.00062264 0)
(505.136 -0.000330022 0)
(505.13 0.000223308 0)
(505.125 0.000444914 0)
(505.122 0.000129183 0)
(505.119 -0.00022403 0)
(505.117 -0.000212598 0)
(505.114 -4.05911e-05 0)
(505.112 0.000154003 0)
(505.11 0.000138804 0)
(505.109 2.69244e-05 0)
(505.109 -8.67334e-05 0)
(505.109 -0.000149727 0)
(505.11 -0.00010164 0)
(505.111 -4.91965e-06 0)
(505.114 3.93194e-05 0)
(505.119 -1.40639e-05 0)
(505.126 -4.57744e-05 0)
(505.134 -1.20895e-05 0)
(505.144 -9.90878e-05 0)
(505.154 -2.87035e-05 0)
(505.163 0.000307216 0)
(505.171 0.000252032 0)
(505.179 -0.000132948 0)
(505.186 -0.000261821 0)
(505.192 -2.46587e-06 0)
(505.198 0.000297547 0)
(505.202 0.000141038 0)
(505.204 -0.000178749 0)
(505.204 -0.000230504 0)
(505.204 -0.000185907 0)
(505.204 -1.77617e-05 0)
(505.202 6.85734e-05 0)
(505.199 7.51425e-05 0)
(505.195 4.55963e-05 0)
(505.189 -9.50305e-05 0)
(505.182 -7.98276e-05 0)
(505.175 0.000185265 0)
(505.169 0.0002216 0)
(505.163 -1.906e-05 0)
(505.159 -8.73929e-05 0)
(505.156 -2.79861e-05 0)
(505.153 0.000100437 0)
(505.15 0.00012497 0)
(505.148 -1.63844e-06 0)
(505.146 -0.00012557 0)
(505.144 -0.000135905 0)
(505.142 -0.000100671 0)
(505.14 -6.62735e-05 0)
(505.138 -4.74164e-05 0)
(505.135 -4.62699e-05 0)
(505.132 -3.85264e-05 0)
(505.126 -2.93942e-05 0)
(505.119 -3.03309e-05 0)
(505.113 2.5928e-07 0)
(505.11 1.81811e-05 0)
(505.11 3.74267e-05 0)
(505.111 7.20093e-05 0)
(505.113 0.000106787 0)
(505.118 0.000101701 0)
(505.127 -1.991e-05 0)
(505.137 0.00018835 0)
(505.148 0.000213542 0)
(505.158 -0.000250629 0)
(505.165 -0.000328435 0)
(505.171 -0.000153313 0)
(505.174 7.09805e-06 0)
(505.178 -2.70889e-05 0)
(505.181 -0.000148087 0)
(505.185 -0.000222694 0)
(505.19 -0.000138035 0)
(505.195 -4.22577e-05 0)
(505.199 6.37198e-05 0)
(505.201 0.000275415 0)
(505.202 0.000359504 0)
(505.201 0.000340898 0)
(505.201 0.000310208 0)
(505.2 0.000192887 0)
(505.198 -9.61628e-06 0)
(505.195 -0.000150419 0)
(505.19 -0.000216457 0)
(505.184 -0.000259182 0)
(505.177 -0.000279472 0)
(505.171 -0.000293395 0)
(505.165 -0.000284447 0)
(505.161 -0.000231027 0)
(505.157 -9.90335e-05 0)
(505.154 4.46701e-05 0)
(505.151 0.000222022 0)
(505.149 0.000366626 0)
(505.147 0.000435793 0)
(505.146 0.000283183 0)
(505.145 8.06948e-05 0)
(505.144 6.70509e-06 0)
(505.143 -7.75935e-05 0)
(505.141 -0.000150909 0)
(505.139 -0.000202067 0)
(505.137 -0.000220679 0)
(505.134 -0.00025231 0)
(505.13 -0.000235969 0)
(505.125 -0.000279936 0)
(505.118 -0.00023886 0)
(505.11 -4.63764e-06 0)
(505.106 0.00023943 0)
(505.106 0.000345674 0)
(505.107 0.000340798 0)
(505.109 0.000271348 0)
(505.115 0.00020996 0)
(505.124 3.55714e-05 0)
(505.136 7.77787e-05 0)
(505.149 0.000109547 0)
(505.16 -0.000161529 0)
(505.169 -0.000353 0)
(505.174 -0.000345768 0)
(505.177 -0.000175552 0)
(505.18 -0.000153883 0)
(505.183 -0.000170297 0)
(505.186 -9.07764e-05 0)
(505.189 0.000123895 0)
(505.193 0.000235261 0)
(505.197 0.000260283 0)
(505.201 0.000168395 0)
(505.205 -8.19693e-07 0)
(505.206 1.74842e-05 0)
(505.206 9.83291e-05 0)
(505.206 0.000132561 0)
(505.205 8.12496e-05 0)
(505.203 -0.000117338 0)
(505.199 -0.000303924 0)
(505.194 -0.000335288 0)
(505.187 -0.000255951 0)
(505.179 -2.99056e-05 0)
(505.172 0.000250773 0)
(505.166 0.000391948 0)
(505.161 0.000203282 0)
(505.157 -3.65349e-05 0)
(505.154 -5.72616e-05 0)
(505.152 -6.78684e-05 0)
(505.149 -5.29347e-05 0)
(505.148 -2.21394e-06 0)
(505.146 -1.1676e-05 0)
(505.145 -8.39321e-05 0)
(505.143 -0.000132624 0)
(505.142 -8.93887e-05 0)
(505.14 2.16997e-05 0)
(505.138 0.000131926 0)
(505.135 0.000233945 0)
(505.132 0.000316148 0)
(505.128 0.000282618 0)
(505.123 2.8466e-05 0)
(505.116 -8.92633e-05 0)
(505.107 -0.00019358 0)
(505.098 -0.000264066 0)
(505.095 -0.000321028 0)
(505.095 -0.000311953 0)
(505.096 -0.00031463 0)
(505.099 -0.000271499 0)
(505.107 -0.000129163 0)
(505.119 -4.55516e-05 0)
(505.135 -1.41344e-05 0)
(505.151 0.00049901 0)
(505.163 0.000976628 0)
(505.171 0.000923922 0)
(505.177 0.000500507 0)
(505.181 -0.000164304 0)
(505.184 -0.000453778 0)
(505.188 -0.000436192 0)
(505.192 -0.000312607 0)
(505.196 -0.000262889 0)
(505.2 -0.00034937 0)
(505.204 -0.000653502 0)
(505.208 -0.000822716 0)
(505.212 -0.000550573 0)
(505.214 -0.000138059 0)
(505.215 0.000382542 0)
(505.215 0.000782235 0)
(505.214 0.00104562 0)
(505.212 0.00106786 0)
(505.209 0.000773273 0)
(505.204 0.000333681 0)
(505.198 3.68985e-05 0)
(505.19 -0.000161285 0)
(505.182 -0.000384652 0)
(505.175 -0.000687407 0)
(505.168 -0.000968082 0)
(505.162 -0.00117238 0)
(505.157 -0.00116133 0)
(505.153 -0.000875616 0)
(505.149 -0.000300693 0)
(505.145 0.000282679 0)
(505.142 0.000821313 0)
(505.14 0.00125591 0)
(505.138 0.00124393 0)
(505.136 0.000787209 0)
(505.133 0.000525225 0)
(505.13 0.000403775 0)
(505.126 0.000275469 0)
(505.121 -4.89759e-05 0)
(505.114 -0.000632654 0)
(505.106 -0.000935627 0)
(505.095 -0.00118471 0)
(505.082 -0.00132912 0)
(505.074 -0.00120172 0)
(505.072 -0.000788994 0)
(505.073 -0.000229068 0)
(505.077 0.000248102 0)
(505.086 0.000939189 0)
(505.101 0.00115788 0)
(505.122 0.00133251 0)
(505.143 0.00113458 0)
(505.161 0.000549926 0)
(505.173 0.000501101 0)
(505.18 0.000655513 0)
(505.184 0.000399051 0)
(505.187 -0.000471981 0)
(505.19 -0.00116296 0)
(505.195 -0.00112246 0)
(505.2 -0.000869288 0)
(505.208 -0.000586535 0)
(500 1.41153e-14 0)
(500 -1.30574e-13 0)
(500 -1.54373e-13 0)
(500 -2.33993e-13 0)
(500 -1.95987e-13 0)
(500 -1.99218e-13 0)
(500 -1.95418e-13 0)
(500 8.45764e-15 0)
(500 -6.3156e-14 0)
(500 -1.01782e-13 0)
(500 2.52424e-13 0)
(500 1.78593e-13 0)
(500 -7.27001e-14 0)
(500 1.42659e-13 0)
(500 1.30024e-13 0)
(500 1.7807e-13 0)
(500 3.53186e-14 0)
(500 -1.36543e-13 0)
(500 -4.86141e-13 0)
(500 -8.22748e-13 0)
(500 -4.20098e-14 0)
(500 -4.99915e-12 0)
(500 1.69248e-11 0)
(500 -5.36385e-11 0)
(500 1.58209e-10 0)
(500 -9.11011e-10 0)
(500 7.06364e-09 0)
(500 -4.42875e-08 0)
(500 2.03616e-07 0)
(499.999 -6.89938e-07 0)
(499.998 1.53192e-06 0)
(499.994 -1.29075e-06 0)
(499.982 -6.1343e-06 0)
(499.952 3.19702e-05 0)
(499.883 -7.81118e-05 0)
(499.741 9.15012e-05 0)
(499.501 3.25069e-05 0)
(499.24 -0.000178595 0)
(499.135 1.04225e-05 0)
(499.137 4.34862e-05 0)
(499.18 0.000171441 0)
(499.317 -0.000204467 0)
(499.586 -0.000821045 0)
(499.989 0.00289053 0)
(500.5 -9.99014e-05 0)
(501.072 -0.00771987 0)
(501.66 0.00362179 0)
(502.231 0.0113141 0)
(502.768 -0.00560704 0)
(503.241 -0.0140864 0)
(503.643 0.0054656 0)
(503.968 0.0137639 0)
(504.233 0.000497791 0)
(504.434 -0.0113358 0)
(504.589 -0.00619276 0)
(504.711 0.00648678 0)
(504.812 0.00766479 0)
(504.904 0.00107447 0)
(504.983 -0.00537802 0)
(505.05 -0.00524322 0)
(505.109 0.00129071 0)
(505.16 0.00462336 0)
(505.209 0.00234728 0)
(505.255 -0.00169508 0)
(505.292 -0.00301304 0)
(505.313 -0.00117303 0)
(505.317 0.00127346 0)
(505.317 0.00157383 0)
(505.316 0.00107023 0)
(505.314 -0.00042592 0)
(505.308 -0.00112106 0)
(505.298 -0.000784467 0)
(505.281 0.000208676 0)
(505.261 0.00119049 0)
(505.238 0.000807225 0)
(505.216 -0.000736589 0)
(505.198 -0.000977161 0)
(505.182 4.231e-05 0)
(505.17 0.00080651 0)
(505.16 0.000449095 0)
(505.151 -0.000421164 0)
(505.143 -0.000557778 0)
(505.136 -0.000209661 0)
(505.13 0.0002054 0)
(505.126 0.000365337 0)
(505.122 0.000110347 0)
(505.119 -0.000145178 0)
(505.117 -0.000140765 0)
(505.114 -3.40602e-05 0)
(505.112 0.000114115 0)
(505.11 0.000108095 0)
(505.109 -1.64016e-06 0)
(505.109 -8.03662e-05 0)
(505.109 -0.000132395 0)
(505.11 -0.000116678 0)
(505.111 -3.88899e-05 0)
(505.114 -1.83419e-05 0)
(505.119 -5.87901e-05 0)
(505.126 -2.5069e-05 0)
(505.134 9.08236e-06 0)
(505.144 -9.82095e-05 0)
(505.154 3.83829e-05 0)
(505.163 0.000355269 0)
(505.171 0.000164001 0)
(505.179 -0.000228043 0)
(505.186 -0.000232722 0)
(505.192 0.000113264 0)
(505.198 0.000319555 0)
(505.202 7.85529e-05 0)
(505.204 -0.000224029 0)
(505.204 -0.000255315 0)
(505.204 -0.000189348 0)
(505.204 5.37085e-06 0)
(505.202 0.000114889 0)
(505.199 0.000126947 0)
(505.195 5.37491e-05 0)
(505.189 -0.000104919 0)
(505.182 -5.91742e-05 0)
(505.175 0.00018834 0)
(505.169 0.000171047 0)
(505.164 -5.59762e-05 0)
(505.159 -7.53349e-05 0)
(505.156 -1.46015e-05 0)
(505.153 9.04216e-05 0)
(505.15 7.95684e-05 0)
(505.148 -4.85325e-05 0)
(505.146 -0.000117266 0)
(505.144 -7.22692e-05 0)
(505.142 -1.0145e-05 0)
(505.14 2.20623e-05 0)
(505.138 -1.88833e-05 0)
(505.135 -6.47693e-05 0)
(505.132 -8.31276e-05 0)
(505.126 -6.02907e-05 0)
(505.119 -3.98143e-05 0)
(505.113 -5.57651e-05 0)
(505.111 -3.59248e-05 0)
(505.11 1.40993e-05 0)
(505.111 4.86856e-05 0)
(505.113 7.77714e-05 0)
(505.118 6.60424e-05 0)
(505.127 -5.79487e-05 0)
(505.137 0.00017225 0)
(505.148 0.000300006 0)
(505.158 -0.000130738 0)
(505.165 -0.000237978 0)
(505.17 -0.000134041 0)
(505.174 -4.48515e-05 0)
(505.178 -0.000130299 0)
(505.181 -0.000244162 0)
(505.185 -0.000206856 0)
(505.19 -4.38007e-05 0)
(505.195 7.96847e-05 0)
(505.2 0.000122103 0)
(505.202 0.000186791 0)
(505.202 0.000272662 0)
(505.202 0.000276618 0)
(505.201 0.000270257 0)
(505.2 0.000230021 0)
(505.198 7.41852e-05 0)
(505.195 -0.000143786 0)
(505.19 -0.000241172 0)
(505.184 -0.000278171 0)
(505.177 -0.000309297 0)
(505.171 -0.000280453 0)
(505.165 -0.000207736 0)
(505.161 -0.000165528 0)
(505.157 -6.5949e-05 0)
(505.154 4.6328e-05 0)
(505.152 0.000180599 0)
(505.149 0.000331824 0)
(505.148 0.000430588 0)
(505.146 0.000426783 0)
(505.145 0.00018921 0)
(505.144 5.60377e-07 0)
(505.143 -0.000101315 0)
(505.141 -0.000208782 0)
(505.139 -0.000253035 0)
(505.137 -0.000255771 0)
(505.134 -0.000272363 0)
(505.13 -0.000219322 0)
(505.125 -0.000242934 0)
(505.118 -0.000248403 0)
(505.11 -1.13841e-05 0)
(505.106 0.000264414 0)
(505.106 0.000397125 0)
(505.107 0.000409478 0)
(505.109 0.000375012 0)
(505.115 0.000291275 0)
(505.124 8.54908e-05 0)
(505.136 7.79873e-05 0)
(505.149 -7.297e-05 0)
(505.16 -0.000301979 0)
(505.168 -0.000407784 0)
(505.173 -0.000384916 0)
(505.177 -0.000331559 0)
(505.18 -0.000237863 0)
(505.183 -0.000154433 0)
(505.186 1.26082e-05 0)
(505.189 0.000154635 0)
(505.193 0.000331873 0)
(505.197 0.000441569 0)
(505.201 0.000281631 0)
(505.205 3.30373e-05 0)
(505.206 -2.12668e-05 0)
(505.206 2.15113e-06 0)
(505.206 8.51194e-06 0)
(505.205 -0.000135006 0)
(505.203 -0.00024924 0)
(505.199 -0.000293033 0)
(505.194 -0.000299038 0)
(505.187 -0.000230702 0)
(505.179 -4.31573e-05 0)
(505.172 0.000245187 0)
(505.166 0.000453401 0)
(505.161 0.000421562 0)
(505.157 0.000125337 0)
(505.154 -6.50604e-05 0)
(505.152 -8.10619e-05 0)
(505.149 -8.85393e-05 0)
(505.148 -0.000102275 0)
(505.146 -0.00012017 0)
(505.145 -0.00017772 0)
(505.143 -0.000203991 0)
(505.142 -0.000184942 0)
(505.14 -0.000124566 0)
(505.138 1.60629e-05 0)
(505.136 0.000221348 0)
(505.132 0.000422164 0)
(505.128 0.00049451 0)
(505.123 0.000372965 0)
(505.116 0.000158201 0)
(505.106 -2.04618e-05 0)
(505.098 -0.000326857 0)
(505.095 -0.000398666 0)
(505.095 -0.000449103 0)
(505.096 -0.00048104 0)
(505.1 -0.000358069 0)
(505.107 -0.000138651 0)
(505.12 -9.57079e-05 0)
(505.135 -4.64125e-05 0)
(505.151 0.000462565 0)
(505.163 0.000908909 0)
(505.171 0.000905995 0)
(505.176 0.000471229 0)
(505.18 0.000143974 0)
(505.184 -0.000168432 0)
(505.188 -0.000337546 0)
(505.192 -0.000368524 0)
(505.196 -0.000419151 0)
(505.2 -0.00055721 0)
(505.204 -0.000721572 0)
(505.208 -0.000694071 0)
(505.212 -0.000578981 0)
(505.215 -0.000212736 0)
(505.216 0.000387186 0)
(505.215 0.000769162 0)
(505.214 0.0011226 0)
(505.212 0.0011859 0)
(505.209 0.00108507 0)
(505.204 0.000712701 0)
(505.197 0.000157032 0)
(505.19 -0.000306041 0)
(505.182 -0.000638008 0)
(505.174 -0.000926103 0)
(505.168 -0.00116867 0)
(505.162 -0.00129147 0)
(505.158 -0.00118402 0)
(505.153 -0.000838803 0)
(505.15 -0.000302659 0)
(505.146 0.000334246 0)
(505.143 0.000858593 0)
(505.14 0.00126624 0)
(505.138 0.001456 0)
(505.136 0.00123729 0)
(505.133 0.000811086 0)
(505.129 0.000471256 0)
(505.125 3.75695e-05 0)
(505.12 -0.000599269 0)
(505.114 -0.000857964 0)
(505.106 -0.000932243 0)
(505.094 -0.00114043 0)
(505.082 -0.00118948 0)
(505.074 -0.00108249 0)
(505.073 -0.000457168 0)
(505.074 -5.49202e-05 0)
(505.078 0.000619497 0)
(505.087 0.000929098 0)
(505.101 0.00109292 0)
(505.121 0.00131721 0)
(505.143 0.00105763 0)
(505.161 0.000399379 0)
(505.172 0.000241484 0)
(505.18 0.000252239 0)
(505.184 -0.000211787 0)
(505.186 -0.000942721 0)
(505.19 -0.00115945 0)
(505.195 -0.00108799 0)
(505.2 -0.000776697 0)
(505.208 -0.00035267 0)
(500 -1.49483e-13 0)
(500 -2.5961e-13 0)
(500 -2.36389e-13 0)
(500 -2.36694e-13 0)
(500 -1.16589e-13 0)
(500 -1.78515e-13 0)
(500 -8.94555e-14 0)
(500 -1.01689e-13 0)
(500 -1.38188e-13 0)
(500 -6.53616e-14 0)
(500 8.49866e-14 0)
(500 1.29244e-13 0)
(500 -1.13488e-14 0)
(500 8.92164e-14 0)
(500 4.80464e-14 0)
(500 1.30139e-13 0)
(500 7.27331e-16 0)
(500 -1.65767e-13 0)
(500 -3.95004e-13 0)
(500 -7.4439e-13 0)
(500 3.28505e-13 0)
(500 -5.45119e-12 0)
(500 1.90425e-11 0)
(500 -5.75631e-11 0)
(500 1.73149e-10 0)