/*--------------------------------*- C++ -*----------------------------------*\
| =========                 |                                                 |
| \\      /  F ield         | OpenFOAM: The Open Source CFD Toolbox           |
|  \\    /   O peration     | Version:  2306                                  |
|   \\  /    A nd           | Website:  www.openfoam.com                      |
|    \\/     M anipulation  |                                                 |
\*---------------------------------------------------------------------------*/
FoamFile
{
    version     2.0;
    format      ascii;
    arch        "LSB;label=32;scalar=64";
    class       volVectorField;
    location    "0.07";
    object      U;
}
// * * * * * * * * * * * * * * * * * * * * * * * * * * * * * * * * * * * * * //

dimensions      [0 1 -1 0 0 0 0];

internalField   nonuniform List<vector> 
6000
(
(-2512.05 -0.384578 0)
(-739.472 -1.00833 0)
(348.961 1.66333 0)
(342.548 2.57182 0)
(323.696 0.0643761 0)
(297.143 -0.0507717 0)
(297.061 -0.423678 0)
(206.202 -0.708645 0)
(-75.3586 -1.11021 0)
(-240.868 -1.30485 0)
(-238.572 -1.43777 0)
(-211.952 -1.5125 0)
(-159.029 -1.50668 0)
(-96.6777 -1.5073 0)
(-33.0651 -1.56069 0)
(30.2667 -1.67161 0)
(94.8941 -1.78425 0)
(163.998 -1.78633 0)
(238.371 -1.56616 0)
(303.691 -0.915168 0)
(337.803 -0.150835 0)
(347.968 0.345549 0)
(350.243 0.622452 0)
(328.672 0.695111 0)
(187.474 0.690599 0)
(-86.2576 0.281919 0)
(-143.289 0.0920551 0)
(-133.036 -0.0163789 0)
(-99.5566 -0.0843909 0)
(-57.1782 -0.118201 0)
(-20.4855 -0.127852 0)
(10.3411 -0.164799 0)
(39.0137 -0.249057 0)
(67.8771 -0.367801 0)
(97.5576 -0.547721 0)
(127.491 -0.766844 0)
(157.269 -1.05219 0)
(189.132 -1.28095 0)
(230.751 -1.40449 0)
(288.197 -1.30205 0)
(324.4 -0.674904 0)
(327.685 -0.200715 0)
(296.242 0.136167 0)
(129.417 0.239231 0)
(-49.8136 0.365669 0)
(-66.4864 0.424244 0)
(-55.7743 0.454726 0)
(-27.3675 0.485479 0)
(5.08219 0.520164 0)
(29.478 0.562253 0)
(47.7119 0.603018 0)
(64.4301 0.640116 0)
(82.0777 0.64063 0)
(101.026 0.595162 0)
(120.232 0.487927 0)
(138.486 0.313767 0)
(156.33 0.0625741 0)
(177.709 -0.278072 0)
(211.673 -0.584808 0)
(263.505 -0.806389 0)
(292.389 -1.08101 0)
(292.859 -1.26941 0)
(256.426 -1.22693 0)
(108.385 -1.08683 0)
(-7.54036 -0.922131 0)
(-14.4428 -0.802083 0)
(-6.05693 -0.701091 0)
(16.8094 -0.575174 0)
(43.802 -0.427054 0)
(62.681 -0.263534 0)
(74.2678 -0.213478 0)
(84.6552 -0.215315 0)
(95.8994 -0.271435 0)
(108.923 -0.330005 0)
(122.778 -0.426419 0)
(135.992 -0.531265 0)
(148.582 -0.653962 0)
(164.244 -0.790618 0)
(190.788 -0.925559 0)
(227.864 -1.00997 0)
(253.919 -0.935854 0)
(243.676 -0.819455 0)
(190.832 -0.695628 0)
(71.6545 -0.604352 0)
(21.3511 -0.460943 0)
(18.6968 -0.306625 0)
(33.1484 -0.126699 0)
(59.7595 0.0732579 0)
(83.8965 0.241553 0)
(98.5432 0.426355 0)
(106.825 0.543212 0)
(114.036 0.700366 0)
(122.227 0.775699 0)
(130.873 0.900542 0)
(139.195 1.13007 0)
(149.575 1.3097 0)
(168.13 1.40593 0)
(196.692 1.43363 0)
(218.101 1.39864 0)
(208.292 1.29536 0)
(166.982 0.906608 0)
(88.1172 0.388172 0)
(54.3343 0.152915 0)
(50.6782 0.104268 0)
(65.4419 0.0882326 0)
(89.9981 0.0207026 0)
(110.758 -0.0772148 0)
(121.669 -0.245026 0)
(126.08 -0.387277 0)
(129.102 -0.534419 0)
(134.388 -0.654601 0)
(145.983 -0.701607 0)
(168.644 -0.626922 0)
(187.929 -0.394053 0)
(185.921 -0.214666 0)
(153.422 -0.239468 0)
(100.512 -0.410894 0)
(70.0823 -0.578007 0)
(69.2031 -0.675313 0)
(87.0568 -0.763659 0)
(111.175 -0.736512 0)
(128.556 -0.69405 0)
(138.331 -0.625626 0)
(147.711 -0.487937 0)
(163.516 -0.336897 0)
(176.515 -0.083105 0)
(169.551 0.453395 0)
(139.276 0.767241 0)
(104.093 1.06443 0)
(91.8222 1.01563 0)
(100.358 0.791056 0)
(124.949 0.568697 0)
(149.555 0.402245 0)
(151.222 0.128957 0)
(135.036 -0.0378961 0)
(117.197 -0.220143 0)
(112.492 -0.368179 0)
(121.751 -0.534248 0)
(135.674 -0.645125 0)
(137.932 -0.518322 0)
(133.706 -0.356036 0)
(127.617 -0.233346 0)
(126.377 -0.244297 0)
(128.873 -0.260269 0)
(132.866 -0.251822 0)
(133.562 -0.179092 0)
(132.355 -0.09865 0)
(130.546 -0.0360745 0)
(130.364 -0.0451688 0)
(131.141 -0.0789848 0)
(132.241 -0.0974945 0)
(132.325 -0.0938417 0)
(131.79 -0.0783513 0)
(130.686 -0.0447289 0)
(130.243 -0.0248172 0)
(130.252 -0.0185842 0)
(130.44 -0.0161789 0)
(130.484 -0.0146242 0)
(130.291 -0.0120153 0)
(129.985 -0.00692087 0)
(129.809 -0.002672 0)
(129.831 -0.000588034 0)
(130.055 0.000215237 0)
(130.331 -0.00108771 0)
(130.502 -0.00244832 0)
(130.629 -0.00473496 0)
(130.823 -0.00823811 0)
(131.167 -0.0137819 0)
(131.506 -0.0202667 0)
(131.614 -0.0254083 0)
(131.55 -0.0287342 0)
(131.34 -0.0310353 0)
(130.855 -0.0291856 0)
(130.128 -0.0232405 0)
(129.509 -0.0148899 0)
(129.292 -0.0045628 0)
(129.252 0.00500988 0)
(129.286 0.014022 0)
(129.447 0.0217045 0)
(129.774 0.0251927 0)
(130.204 0.0252964 0)
(130.482 0.0238621 0)
(130.551 0.0225857 0)
(130.519 0.0221366 0)
(130.426 0.023525 0)
(130.215 0.0239886 0)
(129.875 0.0257871 0)
(129.487 0.030447 0)
(129.202 0.0343186 0)
(129.057 0.0371818 0)
(128.977 0.0401491 0)
(128.916 0.0426694 0)
(128.879 0.0451529 0)
(128.828 0.0474691 0)
(128.737 0.0499665 0)
(128.638 0.0535048 0)
(128.583 0.0577019 0)
(128.576 0.0609988 0)
(128.565 0.0633763 0)
(128.599 0.0639862 0)
(128.736 0.0626706 0)
(129 0.0602334 0)
(129.314 0.0532871 0)
(129.52 0.0412314 0)
(129.578 0.0278278 0)
(129.578 0.0162655 0)
(129.554 0.00545661 0)
(129.451 -0.00199124 0)
(129.191 -0.0012532 0)
(128.719 0.0124429 0)
(128.084 0.0330712 0)
(127.558 0.0487544 0)
(127.361 0.0600663 0)
(127.337 0.0687222 0)
(127.344 0.0762552 0)
(127.406 0.0838479 0)
(127.579 0.0864453 0)
(127.931 0.0790785 0)
(128.462 0.0597827 0)
(129.029 0.0325641 0)
(129.42 0.000128906 0)
(129.583 -0.03384 0)
(129.631 -0.0632498 0)
(129.641 -0.0878766 0)
(129.625 -0.106643 0)
(129.537 -0.120244 0)
(129.29 -0.128638 0)
(128.809 -0.133774 0)
(128.103 -0.133578 0)
(127.332 -0.127802 0)
(126.744 -0.120228 0)
(126.454 -0.112446 0)
(126.363 -0.103408 0)
(126.353 -0.0928519 0)
(126.365 -0.0823711 0)
(126.41 -0.0655103 0)
(126.506 -0.0422306 0)
(126.719 -0.0129287 0)
(127.131 0.01892 0)
(127.78 0.0406558 0)
(128.523 0.0497745 0)
(128.989 0.0527084 0)
(129.083 0.0523501 0)
(129.084 0.055709 0)
(129.037 0.0626027 0)
(128.844 0.074958 0)
(128.351 0.0950009 0)
(127.402 0.128313 0)
(126.072 0.169735 0)
(124.883 0.207177 0)
(124.29 0.235769 0)
(124.115 0.256675 0)
(124.06 0.27444 0)
(124.051 0.291541 0)
(124.147 0.314298 0)
(124.48 0.337283 0)
(125.168 0.3557 0)
(126.232 0.36406 0)
(127.55 0.359209 0)
(128.884 0.340542 0)
(129.99 0.31003 0)
(130.724 0.268061 0)
(131.084 0.214708 0)
(131.178 0.150313 0)
(131.146 0.0891435 0)
(131.031 0.00544821 0)
(130.677 -0.0812983 0)
(129.854 -0.149924 0)
(128.596 -0.19223 0)
(127.606 -0.213819 0)
(127.382 -0.227176 0)
(127.43 -0.237711 0)
(127.553 -0.256675 0)
(127.721 -0.277693 0)
(128.02 -0.301185 0)
(128.624 -0.326603 0)
(129.721 -0.355191 0)
(131.27 -0.384707 0)
(132.508 -0.415606 0)
(133.019 -0.420992 0)
(133.35 -0.419679 0)
(133.435 -0.411097 0)
(133.231 -0.382756 0)
(132.49 -0.31585 0)
(130.95 -0.205612 0)
(128.449 -0.0553314 0)
(125.374 0.0809975 0)
(123.005 0.152784 0)
(122.18 0.176566 0)
(122.125 0.186911 0)
(122.187 0.199583 0)
(122.464 0.203133 0)
(123.174 0.18854 0)
(124.42 0.14163 0)
(125.841 0.0520057 0)
(126.781 -0.0668975 0)
(127.043 -0.171339 0)
(126.995 -0.223463 0)
(126.581 -0.23497 0)
(124.021 -0.245457 0)
(-2512.88 -1.84839 0)
(-739.703 -2.50462 0)
(348.8 4.99759 0)
(342.845 6.53078 0)
(324.454 1.96563 0)
(297.219 1.71838 0)
(296.509 1.45851 0)
(204.59 1.38678 0)
(-77.7263 0.572789 0)
(-242.084 -0.380783 0)
(-239.752 -0.835889 0)
(-213.044 -1.44149 0)
(-160.131 -1.95782 0)
(-97.9183 -2.61197 0)
(-34.3155 -3.27275 0)
(29.1504 -3.96044 0)
(94.0943 -4.57576 0)
(163.745 -4.95832 0)
(238.752 -5.00341 0)
(304.849 -4.79921 0)
(339.524 -3.84987 0)
(350.004 -2.50883 0)
(352.679 -1.10272 0)
(331.077 0.733231 0)
(187.914 1.68365 0)
(-87.6333 0.831967 0)
(-143.848 0.119846 0)
(-133.501 -0.163147 0)
(-99.9347 -0.312286 0)
(-57.5603 -0.42192 0)
(-20.8612 -0.551036 0)
(9.97769 -0.69971 0)
(38.6301 -0.860937 0)
(67.4323 -1.08669 0)
(97.0265 -1.46807 0)
(126.884 -1.91218 0)
(156.621 -2.48516 0)
(188.555 -3.12459 0)
(230.496 -3.62197 0)
(288.731 -3.9243 0)
(325.902 -3.73872 0)
(329.671 -3.30963 0)
(298.671 -2.53283 0)
(131.652 -1.06041 0)
(-49.1087 -0.0836742 0)
(-65.9775 0.175783 0)
(-55.1303 0.376823 0)
(-26.6252 0.676883 0)
(5.81513 1.02982 0)
(30.1555 1.40024 0)
(48.3117 1.72975 0)
(64.9108 2.00456 0)
(82.3832 2.22485 0)
(101.1 2.33005 0)
(120.052 2.27899 0)
(138.109 2.04684 0)
(155.834 1.6974 0)
(177.019 1.36982 0)
(210.387 0.837615 0)
(261.621 -0.386307 0)
(290.936 -1.78861 0)
(291.684 -2.74178 0)
(255.843 -3.63956 0)
(108.737 -3.70247 0)
(-7.32413 -3.16448 0)
(-14.3313 -2.8965 0)
(-5.92064 -2.68591 0)
(17.08 -2.44685 0)
(44.3065 -2.11282 0)
(63.2125 -1.60883 0)
(74.7625 -1.08696 0)
(84.9321 -0.676365 0)
(95.9565 -0.366054 0)
(108.803 -0.238693 0)
(122.432 -0.286873 0)
(135.336 -0.540525 0)
(147.703 -1.08062 0)
(163.266 -1.82084 0)
(189.911 -2.53398 0)
(227.352 -3.0783 0)
(253.814 -3.32186 0)
(243.687 -3.30791 0)
(190.906 -3.10528 0)
(71.7922 -2.68867 0)
(21.5038 -2.27274 0)
(18.8469 -1.93276 0)
(33.396 -1.54318 0)
(60.1131 -1.09804 0)
(84.2807 -0.615322 0)
(98.8757 -0.124562 0)
(107.063 0.231247 0)
(114.142 0.415532 0)
(122.263 0.540938 0)
(130.97 0.545547 0)
(139.6 0.77249 0)
(150.385 1.3989 0)
(169.379 2.24022 0)
(198.003 3.46234 0)
(218.94 4.31291 0)
(208.476 4.49514 0)
(165.931 3.74897 0)
(86.5803 1.97264 0)
(53.5795 0.761892 0)
(50.5247 0.335373 0)
(65.6811 0.156709 0)
(90.2739 0.149628 0)
(110.912 0.116535 0)
(121.677 -0.0986151 0)
(125.857 -0.504778 0)
(128.704 -1.06113 0)
(133.902 -1.67567 0)
(145.607 -2.27136 0)
(168.817 -2.64063 0)
(188.846 -2.46856 0)
(187.169 -2.01827 0)
(154.771 -1.48227 0)
(101.359 -0.97345 0)
(70.5585 -0.90418 0)
(69.433 -0.951906 0)
(87.0751 -1.02103 0)
(111.036 -0.890219 0)
(128.208 -0.469395 0)
(137.377 -0.278516 0)
(146.138 -0.465678 0)
(161.735 -0.70088 0)
(175.6 -0.561208 0)
(169.761 0.413796 0)
(140.072 1.77246 0)
(104.657 3.31437 0)
(91.5942 3.69621 0)
(99.5146 3.35571 0)
(123.774 2.32367 0)
(148.778 0.673834 0)
(151.306 -0.26095 0)
(135.464 -0.466051 0)
(117.448 -0.460141 0)
(112.244 -0.80923 0)
(121.306 -1.43582 0)
(135.986 -1.92823 0)
(138.939 -1.51133 0)
(134.671 -0.844041 0)
(127.872 -0.148801 0)
(126.172 -0.0819195 0)
(128.397 -0.303052 0)
(132.68 -0.653217 0)
(133.776 -0.599779 0)
(132.719 -0.356432 0)
(130.714 -0.00630783 0)
(130.341 0.0771869 0)
(130.941 0.0226725 0)
(132.042 -0.16959 0)
(132.228 -0.26134 0)
(131.811 -0.275952 0)
(130.8 -0.176192 0)
(130.291 -0.0649611 0)
(130.257 -0.0254999 0)
(130.401 -0.014425 0)
(130.446 -0.0269387 0)
(130.27 -0.0347824 0)
(129.983 -0.0285232 0)
(129.81 -0.0141612 0)
(129.83 -0.00746009 0)
(130.049 -0.00644338 0)
(130.327 -0.00846991 0)
(130.502 -0.00754137 0)
(130.627 -0.00491143 0)
(130.812 -0.00573428 0)
(131.138 -0.0150526 0)
(131.471 -0.0370605 0)
(131.582 -0.0600005 0)
(131.521 -0.0767379 0)
(131.315 -0.0945764 0)
(130.837 -0.106895 0)
(130.12 -0.107709 0)
(129.511 -0.0948084 0)
(129.302 -0.0743182 0)
(129.265 -0.058077 0)
(129.303 -0.0394581 0)
(129.468 -0.016521 0)
(129.795 0.00502142 0)
(130.218 0.0208956 0)
(130.489 0.0269345 0)
(130.554 0.0268498 0)
(130.521 0.0244024 0)
(130.425 0.0191063 0)
(130.215 0.0148351 0)
(129.881 0.0137242 0)
(129.505 0.0203615 0)
(129.229 0.0375118 0)
(129.084 0.0551576 0)
(129.003 0.071431 0)
(128.94 0.0841009 0)
(128.902 0.0927766 0)
(128.852 0.0973476 0)
(128.764 0.0987444 0)
(128.672 0.104783 0)
(128.622 0.119951 0)
(128.615 0.137029 0)
(128.605 0.157676 0)
(128.636 0.176721 0)
(128.763 0.190256 0)
(129.015 0.197887 0)
(129.317 0.191681 0)
(129.508 0.16545 0)
(129.554 0.127829 0)
(129.545 0.0898431 0)
(129.51 0.0464105 0)
(129.408 0.00500951 0)
(129.169 -0.0246216 0)
(128.734 -0.0315097 0)
(128.143 -7.20232e-05 0)
(127.627 0.0614114 0)
(127.416 0.114036 0)
(127.391 0.149946 0)
(127.403 0.182397 0)
(127.468 0.223145 0)
(127.635 0.261774 0)
(127.968 0.286758 0)
(128.463 0.27954 0)
(128.996 0.234569 0)
(129.372 0.173124 0)
(129.527 0.113029 0)
(129.567 0.0555363 0)
(129.564 -0.00176683 0)
(129.529 -0.0665831 0)
(129.417 -0.144152 0)
(129.161 -0.231383 0)
(128.698 -0.310725 0)
(128.031 -0.362591 0)
(127.293 -0.376836 0)
(126.713 -0.365852 0)
(126.419 -0.352495 0)
(126.333 -0.340426 0)
(126.327 -0.326172 0)
(126.347 -0.311463 0)
(126.4 -0.286325 0)
(126.517 -0.251028 0)
(126.761 -0.200898 0)
(127.201 -0.137886 0)
(127.852 -0.0693529 0)
(128.568 -0.0172477 0)
(128.998 0.0106853 0)
(129.08 0.00934668 0)
(129.081 0.0085356 0)
(129.032 0.00827716 0)
(128.843 0.00839793 0)
(128.364 0.00884601 0)
(127.449 0.014581 0)
(126.175 0.0549071 0)
(125.035 0.133827 0)
(124.49 0.232366 0)
(124.352 0.338195 0)
(124.307 0.438491 0)
(124.309 0.540523 0)
(124.415 0.657688 0)
(124.738 0.793012 0)
(125.392 0.927116 0)
(126.411 1.03677 0)
(127.686 1.10457 0)
(128.988 1.1254 0)
(130.066 1.10045 0)
(130.757 1.03066 0)
(131.057 0.913347 0)
(131.11 0.770857 0)
(131.048 0.625432 0)
(130.888 0.469069 0)
(130.47 0.297211 0)
(129.61 0.100271 0)
(128.365 -0.0915052 0)
(127.403 -0.246202 0)
(127.189 -0.346264 0)
(127.243 -0.411663 0)
(127.37 -0.502031 0)
(127.543 -0.585514 0)
(127.842 -0.664065 0)
(128.435 -0.745852 0)
(129.509 -0.85439 0)
(131.045 -0.986553 0)
(132.353 -1.14978 0)
(132.904 -1.23293 0)
(133.233 -1.29026 0)
(133.327 -1.3384 0)
(133.169 -1.38806 0)
(132.552 -1.36692 0)
(131.223 -1.21208 0)
(128.94 -0.842556 0)
(125.894 -0.332638 0)
(123.345 0.0816312 0)
(122.398 0.304088 0)
(122.314 0.405534 0)
(122.368 0.487266 0)
(122.631 0.573756 0)
(123.301 0.637555 0)
(124.452 0.647809 0)
(125.722 0.534201 0)
(126.532 0.323305 0)
(126.731 0.0528685 0)
(126.637 -0.169725 0)
(126.198 -0.463295 0)
(123.787 -0.673969 0)
(-2513.38 -2.11363 0)
(-739.778 -2.70052 0)
(349.017 6.0177 0)
(343.91 7.45109 0)
(326.3 2.68803 0)
(298.197 2.90703 0)
(296.269 3.10556 0)
(202.193 3.41826 0)
(-81.6026 2.14939 0)
(-244.085 0.969183 0)
(-241.624 0.575142 0)
(-215.028 -0.0512546 0)
(-162.338 -0.777947 0)
(-100.176 -1.8461 0)
(-36.3579 -3.03738 0)
(27.6435 -4.17416 0)
(93.3663 -4.99727 0)
(163.795 -5.51699 0)
(239.356 -5.67968 0)
(305.891 -5.67827 0)
(341.687 -5.17813 0)
(352.395 -3.94929 0)
(355.386 -2.28502 0)
(333.86 0.0221028 0)
(188.076 1.33548 0)
(-89.7624 0.176277 0)
(-144.816 -0.695128 0)
(-134.16 -1.02406 0)
(-100.331 -1.14562 0)
(-57.957 -1.15691 0)
(-21.2865 -1.2188 0)
(9.60535 -1.3315 0)
(38.3258 -1.45856 0)
(67.1625 -1.66209 0)
(96.7544 -2.00355 0)
(126.585 -2.37748 0)
(156.335 -3.03057 0)
(188.323 -3.69793 0)
(230.292 -4.36117 0)
(289.183 -4.9935 0)
(327.959 -4.7001 0)
(331.835 -3.82136 0)
(301.175 -2.44046 0)
(134.172 -0.934126 0)
(-48.2131 -0.0596749 0)
(-65.3084 0.272155 0)
(-54.362 0.567118 0)
(-25.6929 0.961019 0)
(6.79157 1.43739 0)
(31.0642 1.94881 0)
(49.1177 2.37614 0)
(65.5858 2.75316 0)
(82.894 3.05715 0)
(101.415 3.2557 0)
(120.088 3.29015 0)
(137.785 3.0926 0)
(155.155 2.54473 0)
(176.035 1.7027 0)
(209.02 0.59984 0)
(259.757 -0.739475 0)
(288.824 -2.329 0)
(289.463 -3.65812 0)
(254.099 -4.95455 0)
(108.939 -5.12638 0)
(-7.11156 -4.50707 0)
(-14.3469 -4.2259 0)
(-5.97207 -4.0227 0)
(17.082 -3.85306 0)
(44.5633 -3.65268 0)
(63.6961 -3.27292 0)
(75.3446 -2.81024 0)
(85.5805 -2.3464 0)
(96.5771 -1.86469 0)
(109.226 -1.48163 0)
(122.571 -1.32254 0)
(135.15 -1.51733 0)
(147.148 -1.99991 0)
(162.443 -2.66959 0)
(189.018 -3.36365 0)
(226.754 -3.99731 0)
(253.828 -4.32076 0)
(243.91 -4.29206 0)
(191.548 -4.02112 0)
(72.8757 -3.48114 0)
(22.4783 -2.89692 0)
(19.7739 -2.41234 0)
(34.4226 -1.82564 0)
(61.1602 -1.06918 0)
(85.1632 -0.320001 0)
(99.4945 0.323846 0)
(107.478 0.729492 0)
(114.356 0.909419 0)
(122.316 1.07467 0)
(131.023 1.13876 0)
(139.952 1.14228 0)
(151.414 1.47719 0)
(171.576 2.51884 0)
(200.503 4.44532 0)
(220.236 6.17566 0)
(208.294 6.75158 0)
(163.441 5.75438 0)
(83.6322 2.96731 0)
(52.4231 1.23312 0)
(50.4563 0.535617 0)
(66.3414 0.253642 0)
(91.1814 0.229383 0)
(111.702 0.271603 0)
(122.18 -0.00170545 0)
(126.098 -0.601806 0)
(128.707 -1.38797 0)
(133.813 -2.24104 0)
(145.825 -3.06285 0)
(169.869 -3.65369 0)
(190.723 -3.7667 0)
(189.494 -3.47908 0)
(157.002 -2.755 0)
(102.75 -1.77928 0)
(71.0562 -1.41412 0)
(69.4869 -1.47745 0)
(87.033 -1.61354 0)
(111.04 -1.57419 0)
(127.987 -1.18236 0)
(136.303 -0.887921 0)
(143.99 -0.646541 0)
(158.959 -0.714316 0)
(173.626 -0.433762 0)
(169.329 1.15517 0)
(140.655 3.16551 0)
(105.378 5.35322 0)
(91.5357 6.10854 0)
(98.7668 5.67115 0)
(122.358 3.70526 0)
(147.984 0.4451 0)
(152.352 -1.53414 0)
(137.536 -1.78472 0)
(119.087 -0.955424 0)
(112.277 -0.815786 0)
(120.113 -1.55771 0)
(135.462 -2.82721 0)
(140.042 -2.68441 0)
(136.047 -1.85538 0)
(128.722 -0.644601 0)
(126.123 -0.270912 0)
(127.805 -0.405269 0)
(132.183 -0.814744 0)
(133.944 -0.842286 0)
(133.156 -0.595724 0)
(131.083 -0.13887 0)
(130.3 0.046054 0)
(130.679 -0.00773887 0)
(131.694 -0.229747 0)
(132.048 -0.367419 0)
(131.789 -0.381928 0)
(130.968 -0.261568 0)
(130.373 -0.0999889 0)
(130.272 -0.0422069 0)
(130.34 -0.0214819 0)
(130.37 -0.0338675 0)
(130.222 -0.0439 0)
(129.973 -0.0353061 0)
(129.81 -0.0140436 0)
(129.825 -0.000749648 0)
(130.032 0.0023906 0)
(130.31 -0.00329036 0)
(130.494 -0.00285482 0)
(130.623 0.0028698 0)
(130.799 0.0058179 0)
(131.101 -0.00594567 0)
(131.416 -0.0361704 0)
(131.528 -0.0702911 0)
(131.471 -0.0969207 0)
(131.274 -0.126115 0)
(130.82 -0.142435 0)
(130.133 -0.13945 0)
(129.542 -0.119485 0)
(129.337 -0.0910081 0)
(129.299 -0.0675895 0)
(129.337 -0.0414115 0)
(129.502 -0.0108824 0)
(129.823 0.0160793 0)
(130.23 0.0346433 0)
(130.48 0.0388635 0)
(130.54 0.0345903 0)
(130.506 0.0296481 0)
(130.41 0.0227545 0)
(130.199 0.0200439 0)
(129.869 0.0258378 0)
(129.505 0.0450192 0)
(129.237 0.0719064 0)
(129.09 0.0972424 0)
(129.003 0.118465 0)
(128.936 0.136751 0)
(128.89 0.149888 0)
(128.832 0.158553 0)
(128.742 0.163777 0)
(128.658 0.175835 0)
(128.621 0.19808 0)
(128.622 0.221194 0)
(128.622 0.250558 0)
(128.658 0.276563 0)
(128.777 0.294301 0)
(129.006 0.302779 0)
(129.28 0.28954 0)
(129.452 0.247025 0)
(129.491 0.192227 0)
(129.477 0.139882 0)
(129.441 0.0830089 0)
(129.34 0.0262611 0)
(129.121 -0.0259557 0)
(128.743 -0.047663 0)
(128.226 -0.0123901 0)
(127.737 0.0730269 0)
(127.495 0.157701 0)
(127.458 0.21607 0)
(127.472 0.2653 0)
(127.535 0.320203 0)
(127.685 0.367767 0)
(127.966 0.388586 0)
(128.39 0.366139 0)
(128.875 0.30756 0)
(129.241 0.227847 0)
(129.406 0.140984 0)
(129.454 0.0564876 0)
(129.457 -0.0299091 0)
(129.417 -0.127444 0)
(129.292 -0.240516 0)
(129.029 -0.36179 0)
(128.587 -0.471972 0)
(127.981 -0.5463 0)
(127.317 -0.566752 0)
(126.774 -0.546882 0)
(126.483 -0.512979 0)
(126.4 -0.476326 0)
(126.398 -0.442153 0)
(126.424 -0.406025 0)
(126.483 -0.364157 0)
(126.613 -0.313708 0)
(126.875 -0.24682 0)
(127.328 -0.160518 0)
(127.974 -0.0630999 0)
(128.643 0.0173482 0)
(129.005 0.0466395 0)
(129.063 0.044899 0)
(129.058 0.0401947 0)
(129.001 0.0338515 0)
(128.806 0.0219339 0)
(128.339 0.0193168 0)
(127.474 0.0603654 0)
(126.266 0.152524 0)
(125.155 0.301349 0)
(124.598 0.476089 0)
(124.449 0.639951 0)
(124.407 0.790176 0)
(124.426 0.945756 0)
(124.566 1.11126 0)
(124.914 1.28994 0)
(125.556 1.46673 0)
(126.51 1.61435 0)
(127.682 1.70482 0)
(128.865 1.71332 0)
(129.827 1.63291 0)
(130.429 1.46952 0)
(130.69 1.25655 0)
(130.742 1.04003 0)
(130.682 0.825443 0)
(130.508 0.606443 0)
(130.067 0.359505 0)
(129.201 0.0778493 0)
(128.016 -0.209299 0)
(127.192 -0.446318 0)
(127.044 -0.592426 0)
(127.121 -0.696348 0)
(127.245 -0.826596 0)
(127.413 -0.954566 0)
(127.708 -1.07929 0)
(128.282 -1.2043 0)
(129.302 -1.35847 0)
(130.775 -1.5284 0)
(132.15 -1.75183 0)
(132.791 -1.90367 0)
(133.135 -1.98338 0)
(133.259 -2.04267 0)
(133.178 -2.0954 0)
(132.748 -2.06625 0)
(131.715 -1.89235 0)
(129.774 -1.46345 0)
(126.891 -0.754908 0)
(124.025 0.0150307 0)
(122.627 0.491875 0)
(122.43 0.680324 0)
(122.465 0.785178 0)
(122.696 0.887871 0)
(123.264 0.944248 0)
(124.25 0.907199 0)
(125.35 0.746772 0)
(126.05 0.458529 0)
(126.227 0.108608 0)
(126.113 -0.204273 0)
(125.644 -0.595737 0)
(123.459 -0.930349 0)
(-2513.7 -2.0308 0)
(-739.944 -3.37983 0)
(348.541 5.30513 0)
(344.715 6.36387 0)
(327.999 3.40149 0)
(299.125 4.34134 0)
(295.769 4.62199 0)
(199.41 4.69272 0)
(-85.6671 3.4114 0)
(-245.609 2.53138 0)
(-243.17 2.22722 0)
(-216.803 1.77708 0)
(-164.583 1.05649 0)
(-102.74 -0.120989 0)
(-38.9547 -1.51766 0)
(25.4356 -2.95731 0)
(91.9622 -4.07924 0)
(163.297 -4.60836 0)
(239.432 -4.74358 0)
(306.193 -4.65706 0)
(342.945 -4.26801 0)
(354.326 -3.12368 0)
(357.714 -1.93085 0)
(336.528 -0.63795 0)
(188.793 0.0162376 0)
(-91.4624 -0.736038 0)
(-145.64 -1.44101 0)
(-134.683 -1.8011 0)
(-100.53 -1.98255 0)
(-58.0719 -2.05596 0)
(-21.3865 -2.12221 0)
(9.57286 -2.17384 0)
(38.4181 -2.2042 0)
(67.3593 -2.29247 0)
(96.9031 -2.49102 0)
(126.553 -2.75001 0)
(156.157 -3.20486 0)
(188.141 -3.73656 0)
(230.178 -4.21933 0)
(289.62 -4.4914 0)
(329.924 -3.86545 0)
(334.064 -2.83923 0)
(303.881 -1.57756 0)
(136.461 -0.54751 0)
(-47.4026 -0.225513 0)
(-64.5467 0.0921613 0)
(-53.4403 0.396845 0)
(-24.5638 0.825498 0)
(7.97706 1.35517 0)
(32.1904 1.92888 0)
(50.1432 2.42509 0)
(66.471 2.88021 0)
(83.5821 3.26197 0)
(101.851 3.5489 0)
(120.262 3.67592 0)
(137.638 3.54273 0)
(154.558 3.10495 0)
(174.816 2.24233 0)
(207.044 1.03027 0)
(257.189 -0.565159 0)
(286.055 -2.46805 0)
(286.604 -4.0297 0)
(251.92 -5.459 0)
(109.151 -5.7092 0)
(-6.97097 -5.02051 0)
(-14.5211 -4.80824 0)
(-6.22667 -4.71086 0)
(16.8165 -4.69458 0)
(44.5508 -4.70271 0)
(64.0525 -4.55936 0)
(75.9418 -4.28193 0)
(86.32 -3.98042 0)
(97.3344 -3.64706 0)
(109.862 -3.32588 0)
(122.929 -3.11561 0)
(135.154 -3.12207 0)
(146.851 -3.29537 0)
(161.92 -3.65007 0)
(188.292 -4.04967 0)
(226.24 -4.40733 0)
(253.977 -4.38994 0)
(244.116 -4.16597 0)
(191.898 -3.90344 0)
(73.586 -3.72007 0)
(23.4683 -3.3479 0)
(20.8113 -2.89119 0)
(35.8675 -2.22557 0)
(62.8287 -1.1878 0)
(86.5804 -0.159803 0)
(100.36 0.57476 0)
(107.868 0.9451 0)
(114.449 1.03709 0)
(122.28 1.03548 0)
(131.081 1.08079 0)
(140.259 1.22814 0)
(152.398 1.67794 0)
(174.204 2.98902 0)
(203.838 5.47733 0)
(222.408 7.70098 0)
(208.567 8.67449 0)
(160.482 7.5073 0)
(80.1418 4.04212 0)
(51.4459 1.88389 0)
(50.6398 1.0016 0)
(67.373 0.778827 0)
(92.686 0.73494 0)
(113.064 0.65736 0)
(123.077 0.170181 0)
(126.657 -0.619781 0)
(129.054 -1.57536 0)
(134.082 -2.55866 0)
(146.283 -3.55511 0)
(170.907 -4.44938 0)
(192.9 -5.00066 0)
(192.835 -4.69702 0)
(160.698 -3.78678 0)
(105.43 -2.30486 0)
(72.2143 -1.58527 0)
(69.6696 -1.59705 0)
(86.9894 -1.64841 0)
(110.86 -1.87911 0)
(127.19 -1.69003 0)
(134.589 -1.4162 0)
(141.207 -1.35098 0)
(155.568 -1.15315 0)
(171.16 -0.373521 0)
(168.797 2.07031 0)
(141.452 4.20338 0)
(106.526 7.05648 0)
(91.9639 8.1297 0)
(98.5465 7.69039 0)
(120.947 5.1368 0)
(147.023 0.263747 0)
(154.572 -3.42942 0)
(141.681 -3.80506 0)
(123.07 -2.20546 0)
(113.709 -0.760075 0)
(118.828 -0.913788 0)
(134.049 -2.7096 0)
(141.044 -3.21143 0)
(137.5 -2.55897 0)
(130.172 -1.22418 0)
(126.35 -0.466139 0)
(127.348 -0.419562 0)
(131.553 -0.735485 0)
(134.069 -0.833039 0)
(133.567 -0.651106 0)
(131.577 -0.270947 0)
(130.259 -0.0600528 0)
(130.413 -0.114304 0)
(131.291 -0.30637 0)
(131.886 -0.442888 0)
(131.764 -0.429758 0)
(131.161 -0.308484 0)
(130.475 -0.127672 0)
(130.272 -0.0542965 0)
(130.268 -0.03787 0)
(130.272 -0.043783 0)
(130.158 -0.0480816 0)
(129.949 -0.0334062 0)
(129.799 -0.00821348 0)
(129.806 0.00566612 0)
(129.996 0.0106502 0)
(130.277 0.00678969 0)
(130.48 0.00900609 0)
(130.615 0.0162927 0)
(130.779 0.0180923 0)
(131.049 0.00343631 0)
(131.341 -0.0342251 0)
(131.454 -0.0772658 0)
(131.403 -0.110013 0)
(131.217 -0.144981 0)
(130.786 -0.164797 0)
(130.126 -0.167814 0)
(129.564 -0.149001 0)
(129.374 -0.113887 0)
(129.337 -0.0826244 0)
(129.38 -0.0460179 0)
(129.546 -0.00487146 0)
(129.859 0.0291674 0)
(130.24 0.0492648 0)
(130.464 0.0488288 0)
(130.513 0.0349574 0)
(130.477 0.0218556 0)
(130.38 0.0081438 0)
(130.175 0.0026468 0)
(129.866 0.0111068 0)
(129.529 0.0383979 0)
(129.27 0.0804513 0)
(129.117 0.119754 0)
(129.02 0.149554 0)
(128.948 0.173516 0)
(128.893 0.190908 0)
(128.832 0.203076 0)
(128.743 0.211098 0)
(128.672 0.227296 0)
(128.646 0.254883 0)
(128.655 0.28373 0)
(128.662 0.318985 0)
(128.7 0.349376 0)
(128.809 0.368496 0)
(129.009 0.376822 0)
(129.245 0.3626 0)
(129.384 0.31348 0)
(129.409 0.246855 0)
(129.391 0.177145 0)
(129.351 0.101342 0)
(129.251 0.0288221 0)
(129.054 -0.0352817 0)
(128.736 -0.0653951 0)
(128.315 -0.0361894 0)
(127.887 0.0552271 0)
(127.622 0.16718 0)
(127.562 0.254849 0)
(127.574 0.322191 0)
(127.635 0.387631 0)
(127.766 0.441489 0)
(128.009 0.471111 0)
(128.375 0.469528 0)
(128.798 0.422513 0)
(129.126 0.333205 0)
(129.274 0.219054 0)
(129.318 0.100302 0)
(129.318 -0.0284875 0)
(129.267 -0.169992 0)
(129.129 -0.321279 0)
(128.87 -0.469433 0)
(128.464 -0.591753 0)
(127.924 -0.665805 0)
(127.337 -0.680958 0)
(126.845 -0.648173 0)
(126.562 -0.592767 0)
(126.476 -0.536837 0)
(126.476 -0.491916 0)
(126.501 -0.446966 0)
(126.569 -0.397151 0)
(126.719 -0.333539 0)
(127.008 -0.247313 0)
(127.482 -0.139562 0)
(128.117 -0.0252976 0)
(128.716 0.0627538 0)
(128.988 0.0872702 0)
(129.018 0.075265 0)
(129.004 0.0598232 0)
(128.936 0.0359226 0)
(128.732 0.00672078 0)
(128.282 -0.0212209 0)
(127.502 -0.0171469 0)
(126.443 0.0859193 0)
(125.434 0.302397 0)
(124.877 0.568257 0)
(124.709 0.807986 0)
(124.669 1.02634 0)
(124.694 1.24983 0)
(124.849 1.47741 0)
(125.2 1.70788 0)
(125.815 1.92257 0)
(126.706 2.09352 0)
(127.775 2.18789 0)
(128.821 2.18862 0)
(129.638 2.08702 0)
(130.126 1.89812 0)
(130.324 1.65472 0)
(130.348 1.39618 0)
(130.276 1.12235 0)
(130.053 0.833558 0)
(129.54 0.50119 0)
(128.63 0.126734 0)
(127.514 -0.242666 0)
(126.858 -0.523358 0)
(126.777 -0.695324 0)
(126.869 -0.838392 0)
(126.987 -1.00741 0)
(127.156 -1.18641 0)
(127.455 -1.36551 0)
(128.022 -1.54501 0)
(129.008 -1.74836 0)
(130.415 -1.9589 0)
(131.827 -2.21402 0)
(132.587 -2.43587 0)
(132.93 -2.53675 0)
(133.09 -2.63062 0)
(133.06 -2.70372 0)
(132.784 -2.73148 0)
(132.055 -2.63287 0)
(130.577 -2.26526 0)
(128.169 -1.52703 0)
(125.296 -0.483691 0)
(123.27 0.439772 0)
(122.691 0.886154 0)
(122.685 1.05527 0)
(122.853 1.17671 0)
(123.301 1.25694 0)
(124.094 1.22435 0)
(124.943 0.995806 0)
(125.467 0.585225 0)
(125.62 0.103091 0)
(125.459 -0.329484 0)
(124.96 -0.798698 0)
(123.077 -1.18047 0)
(-2513.78 -1.45242 0)
(-740.236 -4.0672 0)
(348.076 2.97686 0)
(344.848 3.19972 0)
(328.311 5.11563 0)
(298.531 6.1303 0)
(293.842 5.40163 0)
(196.531 5.06177 0)
(-87.8154 4.60366 0)
(-245.845 4.20593 0)
(-243.391 3.67645 0)
(-217.43 2.9818 0)
(-165.794 2.17088 0)
(-104.416 1.20445 0)
(-40.965 0.288679 0)
(23.2476 -0.605361 0)
(89.9307 -1.49342 0)
(161.892 -2.15909 0)
(238.636 -2.29522 0)
(305.669 -2.24577 0)
(343.255 -1.94657 0)
(355.3 -1.34124 0)
(359.006 -1.00734 0)
(337.951 -0.979812 0)
(189.564 -1.1662 0)
(-91.8359 -1.55752 0)
(-145.806 -1.99594 0)
(-134.725 -2.29387 0)
(-100.407 -2.47587 0)
(-57.9382 -2.57267 0)
(-21.2532 -2.62175 0)
(9.80279 -2.64542 0)
(38.773 -2.57723 0)
(67.7663 -2.50728 0)
(97.2141 -2.50078 0)
(126.654 -2.54317 0)
(156.042 -2.69363 0)
(187.922 -2.82944 0)
(230.13 -2.75142 0)
(290.268 -2.26259 0)
(331.522 -1.40746 0)
(335.965 -0.70701 0)
(305.843 -0.0935942 0)
(137.536 0.0527654 0)
(-46.7473 0.0156135 0)
(-63.7003 0.202154 0)
(-52.499 0.404992 0)
(-23.5132 0.63612 0)
(9.03494 0.912593 0)
(33.2285 1.28641 0)
(51.1569 1.691 0)
(67.4167 2.17842 0)
(84.3727 2.67721 0)
(102.39 3.04907 0)
(120.482 3.15886 0)
(137.471 2.95754 0)
(153.889 2.48455 0)
(173.576 1.86305 0)
(205.186 1.03986 0)
(254.623 -0.218554 0)
(283.157 -1.93251 0)
(283.578 -3.38557 0)
(249.538 -4.7552 0)
(109.193 -5.13949 0)
(-6.78425 -4.80171 0)
(-14.6624 -4.75316 0)
(-6.5133 -4.84212 0)
(16.3645 -5.02497 0)
(44.1953 -5.21141 0)
(63.9825 -5.34422 0)
(76.0767 -5.34414 0)
(86.5785 -5.29164 0)
(97.6109 -5.21095 0)
(110.107 -5.11124 0)
(123.097 -4.99755 0)
(135.19 -4.85489 0)
(146.742 -4.71283 0)
(161.708 -4.57448 0)
(187.957 -4.38922 0)
(226.061 -4.1586 0)
(254.366 -3.52634 0)
(244.364 -2.99374 0)
(191.784 -2.73473 0)
(73.6615 -2.88417 0)
(24.3504 -2.77655 0)
(21.7947 -2.42518 0)
(37.3614 -1.84604 0)
(64.5071 -0.933612 0)
(87.8544 -0.139869 0)
(100.986 0.313854 0)
(108.021 0.51215 0)
(114.344 0.606727 0)
(122.031 0.591237 0)
(130.816 0.548945 0)
(140.302 0.684344 0)
(153.27 1.13824 0)
(177.15 2.4224 0)
(207.888 5.24846 0)
(224.925 8.15003 0)
(209.566 9.64362 0)
(157.082 8.60016 0)
(76.114 4.57508 0)
(50.5652 2.27312 0)
(51.1928 1.47348 0)
(68.8981 1.0071 0)
(94.4974 1.54478 0)
(114.549 1.40633 0)
(123.971 0.527551 0)
(127.256 -0.549063 0)
(129.683 -1.60748 0)
(134.864 -2.63042 0)
(147.374 -3.64725 0)
(172.527 -4.58318 0)
(195.794 -5.36898 0)
(197.082 -5.20986 0)
(165.61 -4.33979 0)
(109.281 -2.56113 0)
(74.1096 -1.5333 0)
(70.0737 -1.45866 0)
(86.8319 -1.7321 0)
(110.45 -1.7808 0)
(126.155 -2.50013 0)
(132.591 -2.10236 0)
(138.335 -1.68333 0)
(152.337 -1.17873 0)
(169.07 0.243779 0)
(168.595 2.36401 0)
(142.794 4.84489 0)
(108.5 7.82798 0)
(93.2325 9.18797 0)
(99.2004 8.80996 0)
(120.07 6.17476 0)
(145.809 0.74998 0)
(157.049 -4.49977 0)
(146.793 -5.15493 0)
(128.905 -3.67936 0)
(116.697 -1.30688 0)
(118.183 -0.721682 0)
(131.96 -2.19352 0)
(141.431 -3.24065 0)
(138.795 -2.86643 0)
(131.853 -1.59835 0)
(126.859 -0.580125 0)
(127.147 -0.407026 0)
(130.903 -0.622542 0)
(134.052 -0.821493 0)
(133.845 -0.709282 0)
(132.047 -0.428721 0)
(130.264 -0.197887 0)
(130.201 -0.217968 0)
(130.922 -0.340858 0)
(131.741 -0.453681 0)
(131.757 -0.427929 0)
(131.329 -0.320485 0)
(130.59 -0.148895 0)
(130.262 -0.0569455 0)
(130.195 -0.0416785 0)
(130.176 -0.0375328 0)
(130.089 -0.033658 0)
(129.913 -0.0169886 0)
(129.773 0.0099373 0)
(129.772 0.0263644 0)
(129.948 0.0338122 0)
(130.232 0.0325533 0)
(130.457 0.0372999 0)
(130.599 0.0454084 0)
(130.751 0.0437271 0)
(130.984 0.0233244 0)