/*--------------------------------*- C++ -*----------------------------------*\
| =========                 |                                                 |
| \\      /  F ield         | OpenFOAM: The Open Source CFD Toolbox           |
|  \\    /   O peration     | Version:  2306                                  |
|   \\  /    A nd           | Website:  www.openfoam.com                      |
|    \\/     M anipulation  |                                                 |
\*---------------------------------------------------------------------------*/
FoamFile
{
    version     2.0;
    format      ascii;
    arch        "LSB;label=32;scalar=64";
    class       volScalarField;
    location    "0.04";
    object      p;
}
// * * * * * * * * * * * * * * * * * * * * * * * * * * * * * * * * * * * * * //

dimensions      [1 -1 -2 0 0 0 0];

internalField   nonuniform List<scalar> 
6000
(
1.29735e+07
778456
188648
191374
158627
114502
100091
101222
105698
115409
128217
143321
160890
180626
197623
204714
205195
204575
196356
157097
118197
114889
117280
123776
131767
139424
146578
153583
160958
169630
181475
194776
199593
198409
182447
146022
131608
131951
136115
143199
150305
156324
161205
165653
170932
178658
188867
190651
184517
162808
144076
141999
144451
151061
158322
163797
168290
173917
180749
180306
173601
157562
145223
143929
147382
154920
164423
174334
177268
171786
158730
150794
151152
161659
171608
165380
154146
148906
151347
161613
166244
165186
163389
162984
163132
163071
162504
160976
158610
156538
155989
156191
157128
159771
164640
169926
172352
172493
172038
170657
168877
168219
168155
168749
170186
171860
172996
173710
174492
175874
178622
183757
191478
197134
197738
196379
188919
171379
155041
150779
150573
150579
150616
150676
150729
150769
150802
150835
150871
150909
150948
150987
151025
151064
151103
151143
151183
151224
151265
151306
151347
151389
151432
151475
151518
151562
151606
151650
151696
151741
151787
151834
151881
151929
151977
152026
152075
152124
152174
152224
152275
152327
152379
152432
152486
152540
152595
152650
152706
152763
152820
152878
152937
152996
153056
153117
153179
153241
153304
153369
153434
153499
153566
153633
153701
153770
153840
153911
153983
154056
154130
154205
154281
154358
154437
154516
154596
154678
154760
154844
154930
155017
155105
155194
155285
155377
155470
155564
155661
155760
155860
155962
156066
156171
156277
156385
156496
156607
156721
156836
156953
157072
157194
157318
157445
157575
157707
157842
157979
158118
158260
158404
158551
158702
158855
159010
159168
159329
159494
159662
159834
160010
160190
160373
160559
160749
160943
161141
161345
161553
161765
161982
162204
162430
162660
162895
163136
163383
163635
163893
164156
164425
164700
164980
165267
165562
165865
166166
166459
166778
167222
167779
167977
167882
166948
161774
143113
113662
100996
100009
100000
100000
100000
100000
100000
100000
100000
100000
100000
100000
100000
100000
100000
100000
100000
100000
100000
100000
100000
100000
1.29791e+07
778016
188184
190861
158741
114998
100341
101436
105861
115519
128278
143345
160889
180579
197463
204514
205052
204496
196386
157414
118346
114995
117406
123924
131929
139605
146809
153931
161382
170108
181995
195406
199888
198296
180908
144295
131265
131822
136238
143325
150274
156225
161227
165862
171347
179240
189268
190437
183385
161086
143498
141886
144563
151221
158337
163836
168562
174385
181063
180137
172961
156824
145098
144160
147956
155637
165081
174842
177312
171483
157828
149868
150422
161058
172039
166249
155104
149468
151577
161615
166102
165015
163253
162899
163066
163007
162437
160947
158698
156732
156172
156316
157119
159434
163776
168820
171530
171896
171515
170403
169119
168654
168634
169260
170644
172222
173308
174015
174793
176153
178851
183937
191594
197132
197682
196256
188647
171061
154911
150769
150573
150578
150616
150676
150729
150769
150802
150835
150871
150909
150948
150987
151025
151064
151103
151143
151183
151224
151265
151306
151347
151389
151432
151475
151518
151562
151606
151650
151696
151741
151787
151834
151881
151929
151977
152026
152075
152124
152174
152224
152275
152327
152379
152432
152486
152540
152595
152650
152706
152763
152820
152878
152937
152996
153056
153117
153178
153241
153304
153369
153434
153499
153566
153633
153701
153770
153840
153911
153983
154056
154130
154205
154281
154358
154437
154516
154596
154678
154760
154844
154930
155017
155105
155194
155285
155377
155470
155564
155661
155760
155860
155962
156066
156171
156277
156385
156495
156607
156721
156836
156953
157072
157194
157318
157445
157575
157707
157842
157979
158118
158260
158404
158551
158701
158854
159010
159168
159329
159494
159662
159834
160010
160190
160373
160559
160749
160943
161141
161345
161553
161765
161982
162204
162430
162660
162895
163136
163383
163635
163893
164156
164425
164700
164980
165267
165562
165865
166166
166459
166778
167222
167779
167977
167882
166948
161774
143114
113662
100996
100009
100000
100000
100000
100000
100000
100000
100000
100000
100000
100000
100000
100000
100000
100000
100000
100000
100000
100000
100000
100000
1.29849e+07
777090
187455
190281
158920
115621
100623
101745
106067
115665
128392
143450
160976
180600
197399
204196
204579
204127
196130
157484
118533
115171
117619
124171
132170
139850
147101
154288
161826
170737
183155
196937
200923
198538
178119
141071
130680
131553
136451
143575
150298
155975
160837
165581
171664
180581
190559
191018
181991
157749
142169
141421
144683
151625
158483
163741
168740
175249
182015
180570
172081
155030
144540
144044
148467
156462
166221
176188
177884
171470
156563
148353
149034
159912
172335
167445
156561
150476
152168
161767
165897
164747
163051
162783
163014
162944
162317
160805
158718
157036
156556
156705
157478
159523
163158
167398
169896
170506
170328
169666
169255
169146
169360
170121
171435
172792
173711
174353
175121
176503
179237
184344
191933
197186
197635
196103
188240
170480
154653
150747
150572
150578
150617
150676
150730
150769
150802
150835
150871
150909
150948
150987
151025
151064
151103
151143
151183
151224
151265
151306
151347
151390
151432
151475
151518
151562
151606
151651
151696
151741
151787
151834
151881
151929
151977
152026
152075
152124
152174
152224
152275
152327
152379
152432
152486
152540
152595
152650
152706
152763
152820
152878
152937
152996
153056
153117
153178
153241
153304
153369
153434
153499
153566
153633
153701
153770
153840
153911
153983
154056
154130
154205
154281
154358
154436
154516
154596
154678
154760
154844
154930
155017
155105
155194
155285
155377
155470
155565
155661
155760
155860
155962
156066
156170
156277
156385
156495
156607
156721
156836
156954
157073
157194
157318
157445
157575
157708
157842
157979
158118
158259
158403
158551
158701
158854
159010
159169
159330
159494
159662
159834
160010
160190
160373
160559
160749
160943
161141
161344
161553
161765
161982
162204
162430
162660
162895
163136
163383
163635
163893
164156
164425
164700
164980
165267
165562
165865
166166
166459
166778
167222
167779
167977
167882
166948
161774
143114
113662
100996
100009
100000
100000
100000
100000
100000
100000
100000
100000
100000
100000
100000
100000
100000
100000
100000
100000
100000
100000
100000
100000
1.29947e+07
775737
186875
189741
159038
116063
100765
101924
106181
115776
128519
143599
161111
180736
197520
203936
204230
203845
195651
156731
118347
115174
117754
124417
132431
140140
147496
154840
162596
171897
184909
198999
202410
198708
173433
136781
129664
131035
136653
143924
150432
155826
160557
165561
172419
182759
192058
191847
179227
152937
140561
140647
144887
152138
158730
163811
169204
176673
183296
181463
170769
152579
143798
144021
149252
157725
167945
178098
178536
170990
154354
146249
147463
158921
172786
168881
158175
151668
152948
162038
165630
164360
162719
162549
162886
162814
162147
160660
158854
157547
157167
157315
158027
159782
162773
165876
167571
168230
168511
168751
169081
169567
170267
171315
172604
173733
174461
175011
175747
177124
179860
184957
192398
197232
197556
195867
187622
169634
154293
150719
150570
150577
150617
150677
150730
150769
150802
150835
150871
150909
150948
150987
151025
151064
151103
151143
151183
151224
151265
151306
151348
151390
151432
151475
151518
151562
151606
151651
151696
151741
151787
151834
151881
151929
151977
152026
152075
152124
152174
152224
152275
152327
152379
152432
152486
152540
152595
152650
152706
152763
152820
152878
152937
152996
153056
153117
153178
153241
153304
153369
153434
153499
153566
153633
153701
153770
153840
153911
153983
154056
154130
154205
154281
154358
154436
154516
154596
154678
154760
154844
154930
155017
155105
155194
155285
155377
155470
155565
155661
155760
155860
155962
156065
156170
156276
156384
156494
156607
156721
156837
156954
157074
157195
157319
157446
157576
157708
157842
157979
158117
158258
158402
158550
158700
158854
159010
159169
159330
159495
159663
159835
160010
160190
160373
160559
160749
160943
161141
161344
161552
161765
161982
162204
162429
162660
162895
163136
163383
163635
163893
164156
164425
164700
164980
165267
165562
165865
166166
166459
166778
167222
167779
167977
167882
166948
161774
143114
113662
100996
100009
100000
100000
100000
100000
100000
100000
100000
100000
100000
100000
100000
100000
100000
100000
100000
100000
100000
100000
100000
100000
1.30002e+07
774666
186769
189826
159413
116341
100746
101890
106128
115794
128633
143801
161373
181153
197836
203739
204024
203666
195018
155278
117818
115017
117826
124631
132686
140465
147986
155591
163687
173457
187191
201549
204359
198435
166991
132601
128547
130626
136922
144137
150300
155407
160161
165758
173941
186153
194083
192407
174755
147146
138861
139794
145275
152677
158883
163892
170007
178909
185004
182528
168854
149605
142843
143955
150162
159340
170381
180727
179268
169878
151077
143711
145949
158626
173543
170271
159617
152878
153961
162630
165398
163888
162239
162184
162647
162572
161855
160445
159083
158280
158037
158203
158901
160465
162680
164303
165043
165585
166317
167337
168473
169674
171063
172556
173931
174889
175451
175923
176632
178002
180727
185782
192986
197280
197469
195546
186796
168546
153861
150688
150568
150576
150618
150678
150730
150769
150801
150835
150871
150909
150948
150987
151025
151064
151103
151143
151183
151224
151265
151306
151348
151390
151432
151475
151518
151562
151606
151651
151696
151741
151788
151834
151881
151929
151977
152026
152075
152124
152174
152224
152275
152327
152379
152432
152486
152540
152595
152650
152706
152763
152820
152878
152937
152996
153056
153117
153178
153241
153304
153369
153434
153499
153566
153633
153701
153770
153840
153911
153984
154056
154130
154205
154281
154358
154436
154516
154596
154678
154760
154844
154930
155017
155105
155195
155285
155377
155470
155565
155662
155760
155860
155962
156065
156170
156276
156384
156494
156606
156721
156837
156954
157074
157196
157320
157447
157576
157708
157842
157978
158117
158257
158402
158549
158700
158854
159010
159169
159331
159495
159663
159835
160011
160190
160373
160559
160749
160943
161141
161344
161552
161765
161982
162204
162429
162660
162895
163136
163382
163635
163893
164156
164425
164700
164980
165267
165563
165865
166166
166458
166778
167222
167778
167977
167882
166948
161774
143114
113663
100996
100009
100000
100000
100000
100000
100000
100000
100000
100000
100000
100000
100000
100000
100000
100000
100000
100000
100000
100000
100000
100000
1.30071e+07
774637
186950
190136
159688
116367
100619
101743
106011
115764
128750
144077
161825
181889
198407
203659
203912
203473
194111
153318
117136
114831
117877
124831
132970
140868
148577
156429
164825
175154
189648
204048
205753
196866
159415
129142
127372
130425
137257
144312
150119
155044
160000
166337
176154
190336
196268
191726
168243
141475
137148
139263
145765
153062
158836
163983
171073
181845
187169
183366
166285
146536
141892
144009
151137
161066
173187
183661
180036
167839
147206
141480
145228
159265
174861
171515
160592
153888
155138
163496
165160
163240
161516
161619
162283
162219
161433
160166
159394
159112
159059
159317
160038
161265
162351
162672
162799
163197
164117
165650
167571
169543
171534
173569
175295
176292
176767
177166
177832
179168
181844
186804
193663
197311
197360
195130
185758
167251
153387
150657
150566
150575
150619
150679
150731
150769
150801
150834
150871
150909
150948
150987
151025
151064
151103
151143
151183
151224
151265
151306
151348
151390
151432
151475
151518
151562
151606
151651
151696
151741
151788
151834
151881
151929
151977
152026
152075
152124
152174
152224
152275
152327
152379
152432
152486
152540
152595
152650
152706
152763
152820
152878
152937
152996
153056
153117
153178
153241
153304
153369
153434
153499
153566
153633
153701
153770
153840
153912
153984
154056
154130
154205
154281
154358
154436
154516
154596
154678
154760
154844
154930
155017
155105
155195
155285
155377
155470
155565
155662
155760
155860
155962
156065
156169
156275
156383
156494
156606
156721
156837
156955
157075
157196
157321
157448
157577
157709
157842
157978
158116
158257
158401
158548
158699
158853
159010
159169
159331
159496
159664
159836
160011
160190
160373
160559
160749
160943
161141
161344
161552
161765
161982
162204
162429
162660
162895
163136
163382
163635
163893
164156
164425
164700
164981
165267
165563
165865
166166
166458
166778
167221
167778
167977
167882
166948
161774
143114
113663
100996
100009
100000
100000
100000
100000
100000
100000
100000
100000
100000
100000
100000
100000
100000
100000
100000
100000
100000
100000
100000
100000
1.30174e+07
776321
187022
190239
159319
115764
100360
101576
105928
115818
128981
144519
162533
182930
199168
203746
203876
203306
193153
151277
116497
114662
117905
124967
133185
141201
149068
157097
165758
176642
191790
205776
206616
194233
152082
126693
126283
130241
137395
144272
149929
154919
160284
167684
179277
194494
197931
189583
160110
137117
135657
139001
146227
153226
158645
164125
172431
185243
189496
183567
162975
143718
141066
144232
152199
162821
176057
186253
180755
164746
143536
139667
145134
160700
176477
172427
161042
154572
156404
164542
165035
162477
160595
160891
161826
161803
160989
159979
159765
159915
160234
160707
161301
161700
161615
161236
160968
161229
162159
163938
166419
169108
171655
174086
176343
177779
178366
178752
179378
180654
183232
188028
194408
197340
197230
194623
184510
165786
152902
150628
150563
150575
150620
150680
150731
150769
150801
150834
150871
150909
150948
150987
151025
151064
151103
151143
151183
151224
151265
151306
151348
151390
151432
151475
151518
151562
151606
151651
151696
151741
151788
151834
151881
151929
151977
152026
152075
152124
152174
152224
152275
152327
152379
152432
152486
152540
152595
152650
152706
152763
152820
152878
152936
152996
153056
153117
153178
153241
153304
153368
153433
153499
153566
153633
153701
153770
153840
153912
153984
154056
154130
154205
154281
154358
154436
154516
154596
154678
154760
154845
154930
155017
155105
155195
155285
155377
155470
155565
155662
155760
155860
155962
156065
156169
156275
156383
156494
156606
156721
156837
156955
157075
157197
157322
157448
157578
157709
157842
157978
158115
158256
158400
158548
158699
158853
159010
159169
159331
159496
159664
159836
160011
160190
160373
160559
160749
160943
161141
161344
161552
161765
161982
162204
162429
162659
162895
163136
163382
163635
163893
164156
164426
164700
164981
165268
165563
165865
166166
166458
166777
167221
167778
167977
167882
166948
161774
143114
113663
100996
100009
100000
100000
100000
100000
100000
100000
100000
100000
100000
100000
100000
100000
100000
100000
100000
100000
100000
100000
100000
100000
1.30231e+07
779346
186766
189710
158038
114516
100029
101419
105941
116024
129388
145169
163511
184163
199966
204033
204008
203326
192434
149547
116059
114577
117959
125091
133385
141505
149503
157682
166516
177734
193245
206456
206550
190895
146328
125226
125496
130163
137474
144263
149922
155066
160906
169537
182789
197432
198437
185817
152160
134491
134570
139102
146602
153031
158229
164270
174014
188612
191603
183088
159242
141498
140323
144501
153129
164328
178625
187740
181117
161163
140513
138143
145395
162777
178141
172810
160663
154801
157692
165616
165156
161707
159615
160112
161358
161394
160615
159888
160003
160529
161387
161998
162079
161779
160971
159958
159527
159723
160604
162451
165210
168371
171409
174215
176853
179045
180159
180681
181294
182485
184910
189446
195193
197378
197095
194030
183053
164193
152433
150604
150561
150574
150622
150682
150732
150769
150801
150834
150871
150909
150948
150987
151025
151064
151103
151143
151183
151224
151265
151306
151348
151390
151432
151475
151518
151562
151606
151651
151696
151742
151788
151834
151881
151929
151977
152026
152075
152124
152174
152224
152275
152327
152379
152432
152486
152540
152595
152650
152706
152763
152820
152878
152936
152996
153056
153117
153178
153241
153304
153368
153433
153499
153565
153633
153701
153770
153840
153912
153984
154056
154130
154205
154281
154358
154436
154516
154596
154678
154761
154845
154930
155017
155105
155195
155285
155377
155470
155565
155662
155760
155860
155962
156065
156169
156275
156383
156493
156606
156721
156837
156955
157075
157198
157322
157449
157578
157709
157842
157977
158115
158256
158399
158547
158698
158852
159009
159169
159331
159496
159665
159836
160012
160191
160373
160559
160749
160943
161141
161344
161552
161765
161982
162204
162429
162659
162895
163135
163382
163635
163893
164157
164426
164701
164981
165268
165563
165865
166166
166458
166777
167221
167778
167977
167882
166948
161774
143114
113663
100996
100009
100000
100000
100000
100000
100000
100000
100000
100000
100000
100000
100000
100000
100000
100000
100000
100000
100000
100000
100000
100000
1.30235e+07
783304
186466
189135
156217
112781
99644.5
101241
106026
116367
129959
145997
164656
185399
200794
204523
204355
203561
192057
148362
115850
114586
118016
125155
133455
141602
149642
157883
166758
178087
193715
205938
205474
187573
142825
124497
125124
130151
137580
144392
150158
155585
161973
171524
185888
198591
198153
180925
145937
133131
133903
139252
146582
152704
157936
164655
175777
191355
193120
182050
155741
140076
139810
144907
153955
165442
180325
188216
180526
157971
138441
137255
146359
165616
179968
173150
159732
154565
159008
166606
165508
160917
158700
159400
160946
161036
160349
159918
160174
161078
162242
162597
162417
161714
160274
158873
158440
158601
159425
161247
164084
167459
170823
173956
176940
179725
181807
182850
183588
184717
186943
191099
196010
197464
196983
193348
181383
162514
152000
150585
150558
150574
150624
150684
150732
150768
150800
150834
150871
150909
150948
150987
151025
151064
151103
151143
151183
151224
151265
151306
151348
151390
151432
151475
151518
151562
151606
151651
151696
151742
151788
151834
151881
151929
151977
152026
152075
152124
152174
152224
152275
152327
152379
152432
152486
152540
152595
152650
152706
152763
152820
152878
152936
152996
153056
153117
153178
153241
153304
153368
153433
153499
153565
153633
153701
153770
153840
153911
153983
154056
154130
154205
154281
154358
154436
154516
154596
154678
154761
154845
154930
155017
155105
155195
155285
155377
155470
155565
155662
155760
155860
155962
156065
156169
156275
156383
156494
156606
156721
156837
156955
157076
157198
157322
157449
157578
157709
157842
157977
158115
158255
158399
158547
158698
158852
159009
159169
159331
159496
159665
159836
160012
160191
160373
160559
160749
160943
161141
161344
161553
161765
161982
162204
162429
162659
162894
163135
163382
163635
163893
164157
164426
164701
164981
165268
165563
165865
166165
166458
166777
167221
167778
167977
167882
166948
161774
143114
113663
100996
100009
100000
100000
100000
100000
100000
100000
100000
100000
100000
100000
100000
100000
100000
100000
100000
100000
100000
100000
100000
100000
1.30287e+07
788081
186583
188989
154638
111180
99321.8
101123
106189
116772
130552
146806
165708
186452
201565
205069
204794
203877
191952
147747
115922
114796
118252
125379
133634
141708
149634
157741
166536
177835
193391
204830
204077
185670
141747
124301
125073
130258
137817
144775
150751
156487
163165
172835
187359
198400
196532
176036
141994
132380
133567
139262
146543
152677
158177
165571
177617
193118
193716
180794
153157
139336
139509
145220
154277
165736
180753
187957
179597
156016
137664
137129
147521
168406
181233
173170
158591
154230
160379
167441
165710
160146
157945
158841
160620
160746
160187
159982
160377
161570
162676
162774
162479
161447
159589
158047
157663
157793
158559
160316
163115
166515
169997
173352
176624
179874
182813
184875
186106
187342
189428
193133
196941
197643
196938
192570
179485
160780
151616
150569
150555
150574
150626
150686
150733
150768
150800
150834
150871
150910
150948
150987
151025
151064
151103
151143
151183
151224
151265
151306
151348
151390
151432
151475
151518
151562
151606
151651
151696
151742
151788
151834
151881
151929
151977
152026
152075
152124
152174
152224
152275
152327
152379
152432
152486
152540
152595
152650
152706
152763
152820
152878
152936
152996
153056
153117
153178
153241
153304
153368
153433
153499
153565
153633
153701
153770
153840
153911
153983
154056
154130
154205
154281
154358
154436
154516
154596
154678
154761
154845
154930
155017
155105
155195
155285
155377
155470
155565
155662
155760
155860
155962
156065
156169
156275
156383
156494
156606
156721
156837
156956
157076
157198
157322
157449
157578
157709
157842
157977
158115
158255
158399
158547
158698
158852
159009
159169
159331
159496
159664
159836
160012
160191
160373
160559
160749
160943
161141
161344
161553
161765
161982
162203
162429
162659
162894
163135
163382
163635
163893
164157
164426
164701
164981
165268
165563
165865
166165
166458
166777
167221
167778
167977
167882
166948
161774
143114
113663
100996
100009
100000
100000
100000
100000
100000
100000
100000
100000
100000
100000
100000
100000
100000
100000
100000
100000
100000
100000
100000
100000
1.30347e+07
792327
186734
188999
153697
110345
99288.8
101191
106443
117158
131049
147436
166483
187208
202207
205693
205408
204426
192253
147592
116172
115110
118544
125646
133865
141857
149652
157613
166272
177437
192563
203856
203334
185511
142146
124558
125327
130528
138176
145265
151304
156920
163381
172964
187498
196698
193841
172577
140339
132007
133362
139248
146695
153060
158881
166557
178710
193447
193528
179458
151556
138686
139023
144948
154107
165541
180293
187362
179172
156173
138009
137616
148521
170363
181921
172862
157926
154224
161604
167911
165600
159486
157450
158506
160406
160535
160109
160062
160592
161929
162781
162761
162333
161007
158909
157411
157118
157238
157967
159647
162334
165626
169058
172467
175940
179531
183103
186210
188412
190153
192393
195727
198149
198185
197074
191689
177318
159015
151287
150557
150552
150575
150629
150688
150733
150767
150799
150834
150871
150910
150948
150987
151025
151064
151103
151143
151183
151224
151265
151306
151348
151390
151432
151475
151518
151562
151606
151651
151696
151742
151788
151834
151881
151929
151977
152026
152075
152124
152174
152224
152275
152327
152379
152432
152486
152540
152595
152650
152706
152763
152820
152878
152936
152996
153056
153117
153178
153241
153304
153368
153433
153499
153565
153632
153701
153770
153840
153911
153983
154056
154130
154205
154281
154358
154436
154516
154596
154678
154761
154845
154930
155017
155105
155195
155285
155377
155470
155565
155662
155760
155860
155962
156065
156169
156275
156384
156494
156607
156721
156838
156956
157076
157197
157322
157448
157577
157708
157842
157977
158115
158256
158400
158547
158698
158853
159009
159169
159331
159496
159664
159836
160011
160191
160373
160559
160749
160943
161141
161345
161553
161765
161982
162203
162429
162659
162894
163135
163382
163635
163893
164157
164426
164701
164981
165268
165563
165865
166165
166458
166777
167221
167778
167977
167882
166948
161774
143114
113663
100996
100009
100000
100000
100000
100000
100000
100000
100000
100000
100000
100000
100000
100000
100000
100000
100000
100000
100000
100000
100000
100000
1.30406e+07
795429
186535
188641
153273
110210
99444.2
101390
106744
117531
131468
147894
166961
187646
202599
206146
205873
204911
192750
148026
116593
115511
118900
125982
134176
142093
149772
157605
166118
176982
191552
203141
203087
186557
143937
125168
125783
130824
138438
145555
151549
156980
163167
172444
186209
194353
191466
171156
140329
131953
133239
139119
146858
153616
159631
167208
178901
192830
192416
178199
150900
138255
138534
144330
153399
164605
178736
186641
179274
158116
139447
138742
149238
170962
182116
172733
157866
154533
162326
167884
165249
159055
157247
158377
160293
160420
160125
160146
160770
162117
162750
162663
162044
160441
158255
156982
156816
156954
157661
159250
161763
164842
168087
171396
174909
178751
182792
186667
189980
192711
195636
198701
199783
199386
197520
190755
174874
157254
151019
150548
150548
150576
150633
150690
150734
150767
150799
150833
150871
150910
150949
150987
151025
151064
151103
151143
151183
151224
151265
151306
151348
151390
151432
151475
151518
151562
151606
151651
151696
151742
151788
151834
151881
151929
151977
152026
152075
152124
152174
152224
152275
152327
152379
152432
152486
152540
152595
152650
152706
152763
152820
152878
152936
152996
153056
153116
153178
153241
153304
153368
153433
153499
153565
153632
153701
153770
153840
153911
153983
154056
154130
154205
154281
154358
154436
154516
154596
154678
154761
154845
154930
155017
155105
155195
155285
155377
155470
155565
155662
155760
155860
155962
156065
156169
156276
156384
156494
156607
156722
156838
156956
157076
157197
157321
157448
157576
157708
157841
157977
158115
158256
158400
158548
158699
158853
159010
159169
159330
159495
159663
159835
160011
160191
160373
160560
160750
160943
161142
161345
161553
161765
161982
162203
162429
162659
162894
163135
163382
163635
163893
164157
164426
164701
164981
165268
165563
165865
166165
166458
166777
167221
167778
167977
167882
166948
161774
143114
113663
100996
100009
100000
100000
100000
100000
100000
100000
100000
100000
100000
100000
100000
100000
100000
100000
100000
100000
100000
100000
100000
100000
1.30469e+07
797012
186143
188132
153088
110413
99798.6
101782
107166
117964
131888
148286
167300
187904
202836
206459
206168
205196
193134
148601
117100
115969
119309
126383
134571
142439
150031
157753
166126
176691
190812
202820
203175
188445
146973
126147
126461
131138
138635
145709
151635
156909
162809
171327
183736
191871
189756
171864
141865
132360
133375
138898
146739
153859
160026
167404
178557
191284
190596
177352
151438
138352
138353
143664
152471
163208
176411
185500
179230
161713
142042
140257
149221
170306
181995
173060
158578
155122
162281
167335
164696
158829
157234
158367
160260
160410
160228
160275
160933
162201
162704
162538
161722
159903
157839
156873
156765
156908
157606
159114
161410
164190
167135
170214
173620
177543
181940
186425
190659
194685
198734
201583
201962
201217
198435
189891
172255
155596
150816
150540
150544
150577
150637
150693
150734
150766
150798
150833
150871
150910
150949
150987
151025
151064
151103
151143
151183
151224
151265
151306
151348
151390
151432
151475
151518
151562
151606
151651
151696
151742
151788
151834
151881
151929
151977
152026
152075
152124
152174
152224
152275
152327
152379
152432
152486
152540
152595
152650
152706
152763
152820
152878
152936
152996
153056
153116
153178
153241
153304
153368
153433
153499
153565
153632
153701
153770
153840
153911
153983
154056
154130
154205
154280
154358
154436
154516
154596
154678
154760
154844
154930
155017
155105
155195
155285
155377
155470
155565
155662
155760
155860
155962
156065
156170
156276
156384
156495
156607
156722
156838
156956
157075
157197
157321
157447
157576
157707
157841
157977
158115
158257
158401
158549
158700
158853
159010
159169
159330
159495
159663
159835
160011
160190
160373
160560
160750
160944
161142
161345
161553
161765
161982
162203
162429
162659
162894
163135
163382
163635
163893
164157
164426
164701
164981
165268
165563
165865
166165
166458
166777
167221
167778
167977
167882
166948
161774
143114
113663
100996
100009
100000
100000
100000
100000
100000
100000
100000
100000
100000
100000
100000
100000
100000
100000
100000
100000
100000
100000
100000
100000
1.30426e+07
798093
186313
188293
153131
110499
100037
102072
107546
118424
132365
148701
167585
188040
202965
206696
206362
205351
193426
149096
117500
116331
119642
126729
134928
142774
150320
157982
166281
176667
190424
202820
203466
190817
150763
127352
127191
131285
138605
145703
151657
156847
162283
169765
180750
189561
188518
173800
145007
133277
133863
138762
146536
153852
160141
167226
177289
188509
187776
176625
153131
138911
138407
142858
151254
161400
173537
183561
179115
165891
145960
142311
149087
168673
181625
173590
159694
155738
161633
166341
164040
158794
157358
158417
160283
160500
160376
160422
161053
162220
162592
162358
161402
159508
157676
156994
156918
157108
157824
159250
161315
163719
166250
168976
172156
176025
180593
185576
190688
196045
201332
204206
204386
203413
199777
189210
169680
154179
150679
150533
150539
150579
150641
150695
150735
150766
150797
150833
150871
150910
150949
150987
151025
151064
151103
151143
151183
151224
151265
151306
151348
151390
151432
151475
151518
151562
151606
151651
151696
151742
151788
151834
151881
151929
151977
152026
152075
152124
152174
152224
152275
152327
152379
152432
152486
152540
152595
152650
152706
152763
152820
152878
152936
152996
153056
153116
153178
153241
153304
153368
153433
153499
153565
153632
153701
153770
153840
153911
153983
154056
154130
154204
154280
154358
154436
154516
154596
154678
154760
154844
154930
155017
155105
155195
155285
155377
155470
155565
155662
155760
155861
155962
156065
156170
156276
156384
156495
156608
156722
156838
156956
157075
157196
157320
157446
157575
157707
157841
157977
158116
158257
158402
158549
158700
158854
159010
159168
159330
159494
159663
159835
160011
160190
160373
160560
160750