/*--------------------------------*- C++ -*----------------------------------*\
| =========                 |                                                 |
| \\      /  F ield         | OpenFOAM: The Open Source CFD Toolbox           |
|  \\    /   O peration     | Version:  2306                                  |
|   \\  /    A nd           | Website:  www.openfoam.com                      |
|    \\/     M anipulation  |                                                 |
\*---------------------------------------------------------------------------*/
FoamFile
{
    version     2.0;
    format      ascii;
    arch        "LSB;label=32;scalar=64";
    class       volScalarField;
    location    "0.04";
    object      T;
}
// * * * * * * * * * * * * * * * * * * * * * * * * * * * * * * * * * * * * * //

dimensions      [0 0 0 1 0 0 0];

internalField   nonuniform List<scalar> 
6000
(
4676.33
3899.28
3498.02
3532.84
3362.72
3087.92
2979.62
3003.25
3056.54
3151.05
3267.69
3396.23
3533.46
3673.03
3784.11
3830.32
3834.47
3827.88
3766.63
3510.91
3199.63
3153.99
3153.13
3180.08
3216.33
3246.6
3271.05
3292.8
3315.21
3343.25
3385.28
3429.69
3427.97
3387.14
3264.59
3027.71
2903.9
2877.43
2867.96
2871.01
2871.49
2861.6
2841.29
2816.25
2792.38
2775.83
2764.7
2711.03
2618.79
2465.48
2328.5
2269.94
2228.37
2200.35
2169.99
2126.95
2075.09
2022.38
1967.77
1886.09
1783.02
1653.37
1542.14
1466.15
1399.98
1340.21
1277.39
1205.88
1112.1
1000.08
880.598
777.654
693.595
625.77
560.02
489.653
432.219
395.398
375.421
367.981
362.196
356.731
353.074
351.545
351.021
350.833
350.653
350.13
349.066
348.047
347.872
348.092
348.63
350.056
352.773
355.647
356.78
356.615
356.021
354.979
353.786
353.288
353.177
353.448
354.237
355.163
355.755
356.094
356.468
357.189
358.696
361.538
365.734
368.686
368.937
368.125
363.974
353.879
343.65
340.802
340.63
340.601
340.587
340.587
340.584
340.575
340.561
340.55
340.541
340.535
340.529
340.525
340.521
340.518
340.516
340.514
340.514
340.514
340.514
340.516
340.518
340.521
340.525
340.529
340.535
340.541
340.548
340.556
340.564
340.573
340.582
340.593
340.603
340.615
340.627
340.64
340.653
340.667
340.681
340.697
340.712
340.729
340.746
340.764
340.782
340.801
340.821
340.842
340.863
340.884
340.907
340.929
340.953
340.977
341.001
341.027
341.053
341.08
341.108
341.136
341.165
341.195
341.226
341.257
341.289
341.321
341.354
341.388
341.422
341.457
341.493
341.53
341.567
341.606
341.645
341.685
341.726
341.768
341.81
341.854
341.898
341.944
341.99
342.037
342.085
342.134
342.184
342.235
342.287
342.341
342.396
342.452
342.508
342.566
342.625
342.685
342.746
342.809
342.872
342.937
343.002
343.069
343.138
343.208
343.28
343.354
343.43
343.508
343.586
343.666
343.747
343.83
343.914
344
344.087
344.176
344.267
344.36
344.456
344.554
344.655
344.758
344.863
344.97
345.078
345.189
345.302
345.417
345.536
345.657
345.782
345.909
346.039
346.172
346.307
346.446
346.587
346.731
346.879
347.029
347.183
347.341
347.501
347.665
347.833
348.006
348.183
348.359
348.53
348.717
348.978
349.305
349.418
349.357
348.795
345.656
333.681
311.886
300.897
300.008
300
300
300
300
300
300
300
300
300
300
300
300
300
300
300
300
300
300
300
300
4676.75
3899.76
3496.8
3530.4
3363.15
3091.68
2981.73
3005.02
3057.87
3151.87
3268.06
3396.24
3533.18
3672.3
3782.51
3828.31
3832.43
3825.31
3763.4
3508.6
3196.03
3149.46
3148.11
3174.55
3210.36
3240.34
3264.82
3287.09
3309.79
3337.96
3379.93
3424.75
3421.41
3378.11
3248.75
3010.14
2895.39
2870.47
2862.51
2865.82
2865.53
2855.2
2835.66
2811.72
2788.91
2773.24
2761.31
2704.39
2608.37
2453.45
2321.81
2265.94
2225.43
2197.76
2166.99
2124.27
2073.45
2021.52
1966.38
1883.15
1778.92
1649.6
1540.65
1465.78
1400.57
1341.07
1278
1206.17
1111.79
999.601
879.686
777.231
693.909
626.608
561.907
491.578
433.706
396.201
375.77
368.069
362.138
356.638
353.008
351.513
350.997
350.806
350.618
350.112
349.115
348.164
347.984
348.159
348.612
349.829
352.226
354.97
356.276
356.24
355.719
354.827
353.926
353.548
353.462
353.747
354.506
355.373
355.935
356.269
356.641
357.348
358.825
361.637
365.795
368.682
368.906
368.056
363.822
353.688
343.565
340.795
340.63
340.601
340.587
340.587
340.585
340.575
340.561
340.55
340.541
340.535
340.529
340.525
340.521
340.518
340.516
340.514
340.514
340.514
340.514
340.516
340.518
340.521
340.525
340.529
340.535
340.541
340.548
340.556
340.564
340.573
340.582
340.593
340.603
340.615
340.627
340.64
340.653
340.667
340.681
340.697
340.712
340.729
340.746
340.764
340.782
340.801
340.821
340.842
340.863
340.884
340.907
340.929
340.953
340.977
341.001
341.027
341.053
341.08
341.108
341.136
341.165
341.195
341.226
341.257
341.289
341.321
341.354
341.388
341.422
341.457
341.493
341.53
341.567
341.606
341.645
341.685
341.726
341.768
341.81
341.854
341.898
341.944
341.99
342.037
342.085
342.134
342.184
342.235
342.287
342.341
342.396
342.452
342.508
342.566
342.625
342.685
342.746
342.808
342.872
342.937
343.002
343.069
343.138
343.208
343.28
343.354
343.43
343.508
343.586
343.666
343.747
343.83
343.914
344
344.087
344.176
344.267
344.36
344.456
344.554
344.655
344.758
344.863
344.97
345.078
345.189
345.302
345.417
345.536
345.657
345.782
345.909
346.039
346.172
346.307
346.445
346.587
346.731
346.879
347.029
347.183
347.341
347.501
347.665
347.833
348.006
348.183
348.359
348.53
348.717
348.978
349.305
349.418
349.357
348.795
345.656
333.681
311.886
300.897
300.008
300
300
300
300
300
300
300
300
300
300
300
300
300
300
300
300
300
300
300
300
4676.93
3900.33
3495.53
3528.09
3363.96
3096.41
2984.13
3007.51
3059.38
3152.74
3268.46
3396.34
3532.78
3670.87
3779.68
3823.1
3825.29
3815.92
3750.13
3494.35
3181.78
3133.66
3130.72
3155.4
3189.59
3218.31
3242.13
3264.09
3286.72
3315.36
3359.33
3405.21
3399.01
3350.9
3208.16
2966.21
2869.62
2847.24
2842.39
2846.52
2845.35
2833.58
2813.51
2790.49
2770.93
2760.6
2748.67
2687.5
2583.98
2423.08
2301.71
2251.14
2213.75
2187.87
2156.67
2113.67
2064.52
2015.52
1961.01
1876.44
1769.15
1638.72
1534.8
1461.66
1398.5
1339.78
1277.42
1206.27
1111.4
999.677
879.363
778.022
695.965
629.632
566.247
495.733
436.838
398.063
376.751
368.417
362.099
356.515
352.935
351.505
351.025
350.811
350.569
350.026
349.111
348.339
348.209
348.385
348.812
349.85
351.807
354.077
355.261
355.364
355.018
354.386
353.995
353.833
353.881
354.247
354.966
355.698
356.161
356.458
356.824
357.544
359.039
361.858
365.972
368.705
368.877
367.968
363.593
353.339
343.397
340.781
340.629
340.601
340.587
340.587
340.585
340.575
340.561
340.55
340.541
340.535
340.529
340.525
340.521
340.518
340.516
340.514
340.514
340.514
340.514
340.516
340.518
340.521
340.525
340.529
340.535
340.541
340.548
340.556
340.564
340.573
340.582
340.593
340.603
340.615
340.627
340.64
340.653
340.667
340.681
340.697
340.712
340.729
340.746
340.764
340.782
340.801
340.821
340.842
340.863
340.884
340.907
340.929
340.953
340.977
341.001
341.027
341.053
341.08
341.108
341.136
341.165
341.195
341.226
341.257
341.289
341.321
341.354
341.388
341.422
341.457
341.493
341.53
341.567
341.606
341.645
341.685
341.726
341.768
341.81
341.854
341.898
341.944
341.99
342.037
342.085
342.134
342.184
342.235
342.287
342.341
342.396
342.452
342.508
342.566
342.625
342.685
342.746
342.808
342.872
342.937
343.003
343.07
343.138
343.208
343.281
343.355
343.43
343.508
343.586
343.666
343.747
343.83
343.914
344
344.087
344.176
344.268
344.361
344.456
344.554
344.655
344.758
344.863
344.97
345.078
345.189
345.302
345.417
345.536
345.657
345.782
345.909
346.039
346.172
346.307
346.445
346.587
346.731
346.879
347.029
347.183
347.341
347.501
347.665
347.833
348.006
348.183
348.359
348.53
348.717
348.978
349.305
349.418
349.357
348.795
345.656
333.681
311.886
300.897
300.008
300
300
300
300
300
300
300
300
300
300
300
300
300
300
300
300
300
300
300
300
4677.31
3900.59
3494.6
3526.08
3364.72
3099.88
2985.33
3008.83
3059.94
3152.98
3268.45
3396.01
3531.68
3668.64
3775.28
3814.56
3814.4
3800.04
3725.83
3463.92
3153.65
3104.99
3100.24
3122.79
3154.62
3181.36
3203.97
3225.23
3247.55
3276.7
3321.6
3366.95
3356.78
3300.76
3136.52
2895.46
2821.95
2803.08
2802.86
2808.87
2807.09
2794.25
2773.98
2752.7
2737.11
2733.88
2719.79
2654.75
2538.34
2371.77
2267.31
2222.56
2190.67
2167.27
2136.16
2093.77
2047.36
2002.78
1948.92
1863.76
1751.26
1620.5
1524
1454.04
1394.04
1336.77
1275.52
1205.1
1109.43
998.29
877.772
778.907
699.284
634.535
572.377
501.363
440.974
400.612
378.171
368.981
362.079
356.355
352.821
351.468
351.049
350.815
350.514
349.942
349.174
348.633
348.57
348.747
349.127
349.976
351.524
353.105
353.818
353.944
353.889
353.841
353.881
354.051
354.385
354.943
355.642
356.233
356.584
356.828
357.174
357.89
359.384
362.191
366.214
368.721
368.83
367.834
363.247
352.829
343.161
340.762
340.628
340.6
340.587
340.587
340.585
340.575
340.561
340.55
340.541
340.535
340.529
340.525
340.521
340.518
340.516
340.515
340.514
340.514
340.514
340.516
340.518
340.521
340.525
340.53
340.535
340.541
340.548
340.556
340.564
340.573
340.582
340.593
340.603
340.615
340.627
340.64
340.653
340.667
340.681
340.697
340.712
340.729
340.746
340.764
340.782
340.801
340.821
340.842
340.863
340.884
340.906
340.929
340.953
340.977
341.001
341.027
341.053
341.08
341.108
341.136
341.165
341.195
341.226
341.257
341.289
341.321
341.354
341.388
341.422
341.457
341.493
341.53
341.567
341.606
341.645
341.685
341.726
341.768
341.81
341.854
341.898
341.944
341.99
342.037
342.086
342.134
342.184
342.235
342.288
342.341
342.396
342.451
342.508
342.566
342.624
342.684
342.745
342.808
342.872
342.937
343.003
343.07
343.139
343.209
343.281
343.355
343.431
343.508
343.586
343.665
343.746
343.829
343.913
343.999
344.087
344.176
344.268
344.361
344.457
344.555
344.655
344.758
344.863
344.97
345.078
345.189
345.302
345.417
345.536
345.657
345.782
345.909
346.039
346.172
346.307
346.445
346.587
346.731
346.879
347.029
347.183
347.341
347.502
347.665
347.833
348.006
348.183
348.359
348.53
348.717
348.978
349.305
349.418
349.357
348.795
345.656
333.682
311.886
300.897
300.008
300
300
300
300
300
300
300
300
300
300
300
300
300
300
300
300
300
300
300
300
4677.01
3900.07
3494.54
3526.94
3367.18
3102.14
2984.96
3008.04
3058.69
3151.91
3267.56
3394.97
3530.05
3666.32
3769.37
3803.05
3800.39
3780.1
3696.09
3425.06
3119.74
3072.02
3066.24
3087.19
3116.62
3141.26
3162.37
3182.56
3203.97
3232.46
3277.11
3320.01
3304.23
3235.08
3042.57
2812.99
2761.26
2746.55
2750.49
2757.21
2754.33
2740.85
2721.84
2704.49
2694.95
2698.96
2679.5
2608.38
2474.41
2305.54
2223.01
2184.16
2159.39
2138.35
2107.4
2066.6
2024.55
1986.11
1932.06
1845.76
1726.19
1596.2
1508.75
1443.09
1387.11
1332.17
1272.88
1202.86
1105.02
993.651
872.811
777.951
701.675
639.436
578.294
506.727
444.937
403.205
379.772
369.754
362.105
356.173
352.653
351.392
351.043
350.782
350.402
349.823
349.294
349.06
349.088
349.285
349.638
350.356
351.417
352.091
352.237
352.299
352.511
352.949
353.489
354.097
354.845
355.66
356.399
356.887
357.142
357.34
357.671
358.382
359.865
362.639
366.521
368.737
368.778
367.652
362.783
352.172
342.877
340.741
340.627
340.6
340.588
340.588
340.585
340.575
340.561
340.55
340.541
340.535
340.529
340.525
340.521
340.518
340.516
340.515
340.514
340.514
340.514
340.516
340.518
340.521
340.525
340.53
340.535
340.541
340.548
340.556
340.564
340.573
340.582
340.593
340.603
340.615
340.627
340.64
340.653
340.667
340.681
340.697
340.712
340.729
340.746
340.764
340.782
340.801
340.821
340.841
340.863
340.884
340.906
340.929
340.953
340.977
341.001
341.027
341.053
341.08
341.108
341.136
341.165
341.195
341.226
341.257
341.289
341.321
341.354
341.388
341.422
341.457
341.493
341.53
341.567
341.606
341.645
341.685
341.726
341.768
341.81
341.854
341.898
341.944
341.99
342.038
342.086
342.134
342.184
342.235
342.288
342.341
342.396
342.451
342.508
342.565
342.624
342.684
342.745
342.808
342.872
342.937
343.003
343.07
343.139
343.209
343.282
343.355
343.431
343.508
343.586
343.665
343.746
343.829
343.913
343.999
344.087
344.176
344.268
344.361
344.457
344.555
344.655
344.758
344.863
344.97
345.078
345.189
345.302
345.417
345.535
345.657
345.782
345.909
346.039
346.172
346.307
346.445
346.587
346.731
346.879
347.03
347.184
347.341
347.502
347.666
347.833
348.006
348.183
348.359
348.53
348.717
348.977
349.305
349.418
349.357
348.795
345.656
333.682
311.886
300.897
300.008
300
300
300
300
300
300
300
300
300
300
300
300
300
300
300
300
300
300
300
300
4676.66
3899.45
3494.75
3528.35
3368.72
3101.79
2982.9
3005.45
3056.01
3149.52
3265.6
3393.21
3528.23
3664.3
3763.3
3790.72
3785.66
3760.15
3667.51
3387.93
3090.89
3046.03
3040.24
3060.47
3088.3
3111.27
3130.77
3149.22
3168.63
3195.87
3239.24
3277.46
3252.51
3165.79
2944.04
2736.84
2700.84
2690.96
2698
2704.3
2700.12
2686.59
2669.89
2656.82
2654.19
2665.39
2637.51
2555.42
2401.35
2238.84
2177.88
2145.32
2126.85
2107.32
2076.56
2038.3
2001.38
1970.08
1914.72
1825.21
1697.59
1569.86
1491.81
1430.69
1378.45
1325.88
1269
1198.84
1097.75
984.299
863.876
775.055
702.74
643.247
582.682
510.322
447.525
405.139
381.213
370.551
362.076
355.879
352.338
351.188
350.949
350.672
350.203
349.666
349.467
349.537
349.703
349.945
350.28
350.786
351.151
351.057
350.842
350.808
351.116
351.884
352.921
354
355.101
356.232
357.172
357.68
357.884
358.042
358.346
359.035
360.484
363.195
366.874
368.744
368.713
367.416
362.2
351.383
342.566
340.721
340.626
340.599
340.588
340.589
340.585
340.575
340.561
340.549
340.541
340.535
340.529
340.525
340.521
340.518
340.516
340.515
340.514
340.514
340.514
340.516
340.518
340.521
340.525
340.53
340.535
340.541
340.548
340.556
340.564
340.573
340.582
340.593
340.603
340.615
340.627
340.64
340.653
340.667
340.681
340.697
340.712
340.729
340.746
340.764
340.782
340.801
340.821
340.841
340.863
340.884
340.906
340.929
340.953
340.977
341.001
341.027
341.053
341.08
341.107
341.136
341.165
341.195
341.226
341.257
341.289
341.321
341.354
341.388
341.422
341.458
341.493
341.53
341.567
341.606
341.645
341.685
341.726
341.768
341.81
341.854
341.898
341.944
341.99
342.038
342.086
342.134
342.184
342.235
342.288
342.341
342.396
342.451
342.508
342.565
342.624
342.684
342.745
342.808
342.872
342.937
343.003
343.071
343.14
343.21
343.282
343.356
343.431
343.508
343.585
343.665
343.745
343.828
343.912
343.999
344.087
344.176
344.268
344.361
344.457
344.555
344.656
344.758
344.863
344.97
345.078
345.189
345.301
345.417
345.535
345.657
345.782
345.909
346.039
346.172
346.307
346.445
346.586
346.731
346.879
347.03
347.184
347.341
347.502
347.666
347.833
348.006
348.183
348.359
348.53
348.716
348.977
349.305
349.418
349.357
348.795
345.656
333.682
311.886
300.897
300.008
300
300
300
300
300
300
300
300
300
300
300
300
300
300
300
300
300
300
300
300
4676.39
3899.38
3493.63
3527.43
3364.89
3095.12
2978.55
3001.76
3052.74
3146.86
3263.55
3391.66
3527.06
3663.21
3758.12
3780.18
3773.26
3744.55
3646.25
3360.37
3073.27
3031.99
3026.86
3047.05
3074.09
3096.03
3114.15
3130.65
3147.9
3173.87
3215.6
3246.99
3213.65
3106.91
2860.34
2679.65
2652.13
2646.38
2654.82
2659.96
2655.13
2642.48
2628.92
2620.82
2625.17
2640.69
2601.61
2504.53
2331.28
2186.1
2140.78
2113.95
2099.82
2080.63
2050.19
2014.95
1983.52
1959.03
1900.56
1805.2
1669.17
1545.73
1475.94
1418.83
1369.4
1318.39
1263.41
1191.91
1087.52
969.663
851.508
769.61
702.074
645.294
584.909
511.649
448.285
405.922
382.24
371.237
362.033
355.462
351.848
350.82
350.724
350.462
349.952
349.537
349.64
350.014
350.419
350.738
350.973
351.002
350.684
350.114
349.673
349.581
349.879
350.805
352.199
353.715
355.146
356.507
357.759
358.518
358.785
358.936
359.217
359.867
361.253
363.858
367.261
368.749
368.631
367.133
361.495
350.486
342.247
340.703
340.625
340.599
340.589
340.589
340.586
340.575
340.561
340.549
340.541
340.535
340.53
340.525
340.521
340.518
340.516
340.515
340.514
340.514
340.514
340.516
340.518
340.521
340.525
340.53
340.535
340.541
340.548
340.556
340.564
340.573
340.582
340.593
340.603
340.615
340.627
340.64
340.653
340.667
340.681
340.697
340.712
340.729
340.746
340.764
340.782
340.801
340.821
340.841
340.862
340.884
340.906
340.929
340.953
340.977
341.001
341.027
341.053
341.08
341.107
341.136
341.165
341.195
341.226
341.257
341.289
341.321
341.354
341.388
341.422
341.457
341.493
341.53
341.567
341.606
341.645
341.685
341.726
341.768
341.811
341.854
341.898
341.944
341.99
342.038
342.086
342.134
342.184
342.235
342.288
342.341
342.396
342.451
342.508
342.565
342.624
342.684
342.745
342.808
342.872
342.937
343.003
343.071
343.14
343.21
343.283
343.356
343.431
343.508
343.585
343.664
343.745
343.828
343.912
343.998
344.086
344.176
344.268
344.362
344.457
344.555
344.656
344.759
344.863
344.97
345.078
345.189
345.301
345.417
345.535
345.657
345.782
345.909
346.039
346.172
346.307
346.445
346.586
346.731
346.879
347.03
347.184
347.341
347.502
347.666
347.834
348.006
348.183
348.359
348.53
348.716
348.977
349.304
349.418
349.357
348.795
345.656
333.682
311.886
300.897
300.008
300
300
300
300
300
300
300
300
300
300
300
300
300
300
300
300
300
300
300
300
4675.14
3899.42
3491.01
3522
3353.62
3081.78
2972.53
2997.3
3049.43
3144.69
3262.27
3391.08
3527.3
3663.41
3754.45
3773.26
3765.48
3736.12
3634.95
3344.07
3066.09
3027.82
3023.48
3043.99
3070.99
3092.68
3110.23
3125.69
3141.28
3165.77
3205.69
3229.95
3188.89
3064.1
2802.42
2645.11
2620.92
2617.91
2626.4
2630.33
2625.09
2613.26
2602.32
2599.78
2611.11
2623.84
2574.3
2461.74
2274.57
2153.25
2116.28
2094.61
2082.04
2061.33
2031.11
1999.18
1973.59
1954.22
1891.02
1788.1
1644.4
1527.11
1463.08
1409.2
1361.36
1310.86
1256.67
1181.67
1074.35
950.668
836.484
760.409
697.875
644.409
584.188
510.277
446.868
405.412
382.699
371.695
362.058
354.921
351.226
350.334
350.399
350.166
349.661
349.416
349.74
350.39
351.084
351.471
351.435
351.033
350.219
349.27
348.733
348.617
348.889
349.861
351.437
353.247
354.976
356.558
358.03
359.227
359.792
360.019
360.292
360.889
362.178
364.624
367.669
368.76
368.547
366.801
360.67
349.502
341.937
340.687
340.625
340.598
340.59
340.59
340.586
340.574
340.561
340.549
340.541
340.535
340.53
340.525
340.521
340.518
340.516
340.515
340.514
340.514
340.514
340.516
340.518
340.521
340.525
340.53
340.535
340.541
340.548
340.556
340.564
340.573
340.582
340.593
340.603
340.615
340.627
340.64
340.653
340.667
340.681
340.697
340.712
340.729
340.746
340.764
340.782
340.801
340.821
340.841
340.862
340.884
340.906
340.929
340.953
340.977
341.001
341.027
341.053
341.08
341.107
341.136
341.165
341.195
341.226
341.257
341.289
341.321
341.354
341.388
341.422
341.457
341.493
341.53
341.567
341.606
341.645
341.685
341.726
341.768
341.811
341.854
341.898
341.944
341.99
342.038
342.086
342.134
342.184
342.235
342.288
342.341
342.396
342.451
342.508
342.565
342.624
342.684
342.745
342.808
342.872
342.937
343.003
343.071
343.14
343.211
343.283
343.356
343.431
343.508
343.585
343.664
343.745
343.827
343.912
343.998
344.086
344.176
344.268
344.362
344.458
344.556
344.656
344.759
344.863
344.97
345.078
345.189
345.301
345.417
345.535
345.657
345.782
345.909
346.039
346.172
346.307
346.445
346.586
346.731
346.879
347.03
347.184
347.341
347.502
347.666
347.834
348.006
348.183
348.359
348.53
348.716
348.977
349.304
349.418
349.357
348.795
345.656
333.682
311.886
300.897
300.008
300
300
300
300
300
300
300
300
300
300
300
300
300
300
300
300
300
300
300
300
4672.88
3898.93
3487.42
3515.89
3338.89
3063.99
2965.48
2992.07
3046.19
3143.34
3262.2
3392.03
3529.29
3664.85
3753.23
3770.64
3762.87
3734.36
3632.07
3336.66
3064.66
3028.44
3024.55
3045.14
3071.96
3093.45
3110.73
3125.8
3140.56
3164.12
3202.73
3220.31
3173.6
3037.24
2771.2
2629.04
2606.13
2604.03
2612.37
2615.59
2610.2
2599.37
2590.32
2591.22
2607.6
2612.62
2556.11
2428.16
2235.91
2136.95
2103.61
2085.3
2072.13
2050.39
2020.69
1991.46
1970.43
1953.54
1885.2
1774.48
1625.38
1515.21
1454.51
1403.24
1356.1
1305.24
1250.43
1171.06
1060.02
931.535
820.641
747.967
689.619
639.648
579.514
505.82
443.123
403.534
382.619
371.833
362.057
354.216
350.555
349.82
350.032
349.837
349.389
349.339
349.805
350.695
351.561
351.799
351.616
350.949
349.735
348.547
348.013
347.885
348.128
349.088
350.723
352.674
354.605
356.385
358.06
359.597
360.714
361.23
361.573
362.13
363.297
365.515
368.094
368.798
368.473
366.421
359.719
348.456
341.651
340.674
340.624
340.598
340.591
340.591
340.586
340.574
340.56
340.549
340.541
340.535
340.53
340.525
340.521
340.518
340.516
340.515
340.514
340.514
340.514
340.516
340.518
340.521
340.525
340.53
340.535
340.541
340.548
340.556
340.564
340.573
340.582
340.593
340.603
340.615
340.627
340.64
340.653
340.667
340.681
340.697
340.712
340.729
340.746
340.764
340.782
340.801
340.821
340.841
340.862
340.884
340.906
340.929
340.953
340.977
341.001
341.027
341.053
341.08
341.107
341.136
341.165
341.195
341.225
341.257
341.288
341.321
341.354
341.388
341.422
341.457
341.493
341.53
341.567
341.606
341.645
341.685
341.726
341.768
341.811
341.854
341.899
341.944
341.99
342.038
342.086
342.134
342.184
342.235
342.288
342.341
342.396
342.451
342.508
342.565
342.624
342.684
342.745
342.808
342.872
342.937
343.004
343.071
343.14
343.211
343.283
343.356
343.431
343.508
343.585
343.664
343.745
343.827
343.912
343.998
344.086
344.176
344.268
344.362
344.458
344.556
344.656
344.759
344.864
344.97
345.078
345.189
345.301
345.417
345.535
345.657
345.782
345.909
346.039
346.172
346.307
346.445
346.586
346.731
346.878
347.03
347.184
347.341
347.502
347.666
347.834
348.006
348.183
348.359
348.529
348.716
348.977
349.304
349.418
349.357
348.795
345.656
333.682
311.886
300.897
300.008
300
300
300
300
300
300
300
300
300
300
300
300
300
300
300
300
300
300
300
300
4670.81
3898.01
3484.02
3511.72
3326.17
3047.4
2959.12
2987.49
3043.85
3142.87
3262.93
3393.9
3532.13
3667.04
3753.95
3770.83
3763.33
3736.12
3633.9
3335.86
3068.48
3033.94
3030.67
3051.42
3077.8
3098.53
3114.66
3128.4
3142.15
3164.85
3202.42
3215.58
3166.11
3025.81
2761.82
2624.45
2601.83
2599.95
2608.4
2611.8
2607.02
2597.29
2588.9
2589.36
2606.18
2604.72
2541.84
2403.61
2214.8
2130.85
2099.2
2082.22
2068.71
2046.79
2017.88
1990.59
1972.04
1954.31
1881.04
1764.66
1612.64
1508.55
1449.44
1399.87
1352.53
1301.12
1245.55
1163.27
1049.24
917.876
808.025
735.774
679.292
631.348
570.854
498.411
437.397
400.465
381.969
371.512
361.693
353.399
349.926
349.346
349.682
349.534
349.182
349.281
349.886
350.953
351.78
351.869
351.611
350.727
349.255
347.985
347.489
347.347
347.564
348.485
350.103
352.08
354.09
356.008
357.857
359.664
361.266
362.354
362.968
363.58
364.657
366.608
368.58
368.887
368.434
365.987
358.632
347.367
341.396
340.665
340.623
340.598
340.593
340.592
340.587
340.574
340.56
340.549
340.541
340.535
340.53
340.525
340.521
340.518
340.516
340.515
340.514
340.514
340.514
340.516
340.518
340.521
340.525
340.53
340.535
340.541
340.548
340.556
340.564
340.573
340.582
340.593
340.603
340.615
340.627
340.64
340.653
340.667
340.681
340.697
340.712
340.729
340.746
340.764
340.782
340.801
340.821
340.841
340.862
340.884
340.906
340.929
340.953
340.977
341.001
341.027
341.053
341.08
341.107
341.136
341.165
341.195
341.225
341.257
341.288
341.321
341.354
341.388
341.422
341.457
341.493
341.53
341.567
341.606
341.645
341.685
341.726
341.768
341.811
341.854
341.899
341.944
341.99
342.038
342.086
342.134
342.184
342.235
342.288
342.341
342.396
342.451
342.508
342.565
342.624
342.684
342.745
342.808
342.872
342.937
343.004
343.071
343.14
343.211
343.283
343.356
343.431
343.507
343.585
343.664
343.745
343.827
343.912
343.998
344.086
344.176
344.268
344.362
344.457
344.556
344.656
344.759
344.864
344.97
345.078
345.189
345.302
345.417
345.536
345.657
345.782
345.909
346.039
346.172
346.307
346.445
346.586
346.731
346.878
347.03
347.184
347.341
347.502
347.666
347.834
348.006
348.183
348.359
348.529
348.716
348.977
349.304
349.418
349.357
348.795
345.656
333.682
311.886
300.897
300.008
300
300
300
300
300
300
300
300
300
300
300
300
300
300
300
300
300
300
300
300
4668.36
3896.81
3480.42
3508.02
3317.32
3037.41
2956.04
2985.39
3043.2
3143.14
3263.96
3395.73
3534.64
3669.16
3755.74
3773.27
3766.55
3741.26
3640.42
3341.61
3078.5
3045.55
3043.09
3064.42
3090.84
3110.97
3125.89
3138.03
3149.96
3170.77
3205.38
3217.1
3167.03
3027.61
2765.69
2627.29
2604.28
2602.06
2610.51
2614.15
2609.19
2598.41
2588.78
2588.55
2605.61
2597.37
2530.72
2390.58
2208.11
2130.28
2099.33
2083.18
2070.26
2048.82
2020.42
1993.32
1974.36
1953.25
1877.66
1758.17
1605.45
1504.02
1445.24
1396.27
1349.2
1297.71
1241.5
1158.68
1044.34
913.046
801.854
727.807
670.616
622.715
561.355
490.031
431.238
396.888
380.609
370.558
360.889
352.577
349.408
348.975
349.406
349.294
349.048
349.254
349.973
351.118
351.791
351.809
351.46
350.385
348.77
347.535
347.106
346.962
347.168
348.046
349.6
351.518
353.506
355.466
357.439
359.45
361.413
363.085
364.233
365.118
366.267
367.994
369.213
369.176
368.485
365.496
357.382
346.247
341.179
340.657
340.621
340.599
340.594
340.594
340.587
340.574
340.56
340.549
340.541
340.535
340.53
340.525
340.521
340.518
340.516
340.515
340.514
340.514
340.514
340.516
340.518
340.521
340.525
340.53
340.535
340.541
340.548
340.556
340.564
340.573
340.582
340.593
340.603
340.615
340.627
340.64
340.653
340.667
340.681
340.697
340.712
340.729
340.746
340.764
340.782
340.801
340.821
340.841
340.862
340.884
340.906
340.929
340.953
340.977
341.001
341.027
341.053
341.08
341.107
341.136
341.165
341.195
341.225
341.257
341.288
341.321
341.354
341.388
341.422
341.457
341.493
341.53
341.567
341.606
341.645
341.685
341.726
341.768
341.811
341.854
341.899
341.944
341.99
342.038
342.086
342.134
342.184
342.235
342.288
342.341
342.396
342.451
342.508
342.565
342.624
342.684
342.745
342.808
342.872
342.937
343.004
343.071
343.14
343.21
343.282
343.356
343.431
343.507
343.585
343.664
343.745
343.827
343.912
343.998
344.086
344.176
344.268
344.361
344.457
344.555
344.656
344.759
344.863
344.97
345.078
345.189
345.302
345.417
345.536
345.657
345.782
345.909
346.039
346.171
346.307
346.445
346.586
346.731
346.879
347.03
347.184
347.342
347.502
347.666
347.834
348.006
348.183
348.359
348.529
348.716
348.977
349.304
349.418
349.357
348.795
345.656
333.682
311.886
300.897
300.008
300
300
300
300
300
300
300
300
300
300
300
300
300
300
300
300
300
300
300
300
4665.76
3895.9
3476.37
3503.21
3312.26
3034.14
2955.39
2985.14
3043.75
3144.19
3265.34
3397.38
3536.41
3670.77
3757.82
3776.72
3771.08
3748.49
3651.34
3355.21
3093.91
3062.21
3060.9
3083.35
3110.38
3130.45
3144.67
3155.66
3166.03
3184.3
3215.18
3227.09
3177.63
3042.56
2784.02
2638.21
2613.77
2610.15
2617.74
2621.01
2615.18
2602.88
2592.01
2590.93
2605.62
2594.01
2526.45
2389.67
2213.19
2135.37
2104.2
2087.95
2075.88
2055.22
2026.33
1997.41
1975.59
1951.24
1874.21
1754.61
1603.28
1502.3
1443.07
1393.64
1346.32
1294.41
1237.31
1156.42
1043.67
915.201
801.729
725.332
665.68
616.088
553.812
483.176
426.052
393.505
378.685
369.096
359.84
351.891
349.057
348.727
349.213
349.133
348.992
349.241
350.023
351.164
351.699
351.675
351.208
349.964
348.296
347.208
346.872
346.738
346.942
347.774
349.225
351.017
352.901
354.811
356.818
358.983
361.22
363.323
365.082
366.502
368.009
369.572
370.074
369.795
368.703
364.978
355.958
345.12
341.001
340.652
340.619
340.599
340.596
340.595
340.587
340.573
340.559
340.549
340.541
340.535
340.53
340.525
340.521
340.518
340.516
340.515
340.514
340.514
340.514
340.516
340.518
340.521
340.525
340.53
340.535
340.541
340.548
340.556
340.564
340.573
340.582
340.593
340.603
340.615
340.627
340.64
340.653
340.667
340.681
340.697
340.712
340.729
340.746
340.764
340.782
340.801
340.821
340.841
340.863
340.884
340.906
340.929
340.953
340.977
341.001
341.027
341.053
341.08
341.107
341.136
341.165
341.195
341.225
341.257
341.288
341.321
341.354
341.388
341.422
341.457
341.493
341.53
341.567
341.606
341.645
341.685
341.726
341.768
341.811
341.854
341.898
341.944
341.99
342.038
342.086
342.134
342.184
342.235
342.288
342.341
342.396
342.451
342.508
342.565
342.624
342.684
342.745
342.808
342.872
342.938
343.004
343.071
343.14
343.21
343.282
343.355
343.43
343.507
343.585
343.664
343.745
343.828
343.912
343.998
344.086
344.176
344.268
344.361
344.457
344.555
344.656
344.759
344.863
344.97
345.079
345.189
345.302
345.417
345.536
345.657
345.782
345.909
346.039
346.171
346.307
346.445
346.586
346.731
346.879
347.03
347.184
347.342
347.502
347.666
347.834
348.006
348.183
348.359
348.529
348.716
348.977
349.304
349.418
349.357
348.795
345.656
333.682
311.886
300.897
300.008
300
300
300
300
300
300
300
300
300
300
300
300
300
300
300
300
300
300
300
300
4663.94
3895.05
3472.64
3498.79
3309.39
3034.04
2956.79
2986.89
3045.7
3146.19
3267.27
3399.26
3538.21
3672.56
3760.51
3780.91
3776.21
3756.56
3664
3371.78
3111.65
3081.02
3080.96
3104.84
3132.95
3153.59
3167.93
3178.74
3188.64
3205.57
3234.42
3248.16
3200.05
3071.71
2818.35
2659.73
2632.76
2626.58
2632.81
2635.27
2628.52
2615
2602.84
2598.87
2608.39
2597.01
2532.63
2405.21
2232.86
2149.32
2116.4
2097.92
2085.16
2064.53
2034.53
2003.19
1978.35
1949.8
1872.02
1755.27
1607.47
1504.8
1444.43
1393.55
1345.78
1293.35
1235.15
1156.95
1046.7
923.612
806.486
726.472
663.1
611.708
549.327
479.143
422.878
390.973
376.545
367.396
358.724
351.362
348.821
348.56
349.089
349.053
348.987
349.249
350.043
351.124
351.576
351.518
350.935
349.563
347.98
347.102
346.812
346.68
346.881
347.663
348.978
350.593
352.302
354.083
356.039
358.265
360.718
363.172
365.439
367.558
369.652
371.08
371.217
370.739
369.177
364.505
354.42
344.049
340.867
340.648
340.617
340.6
340.599
340.597
340.588
340.573
340.559
340.549
340.541
340.535
340.53
340.525
340.521
340.518
340.516
340.515
340.514
340.514
340.514
340.516
340.518
340.521
340.525
340.53
340.535
340.541
340.548
340.556
340.564
340.573
340.582
340.593
340.603
340.615
340.627
340.64
340.653
340.667
340.681
340.697
340.712
340.729
340.746
340.764
340.782
340.801
340.821
340.842
340.863
340.884
340.906
340.929
340.953
340.977
341.001
341.027
341.053
341.08
341.107
341.136
341.165
341.195
341.225
341.257
341.288
341.321
341.354
341.388
341.422
341.457
341.493
341.53
341.567
341.606
341.645
341.685
341.726
341.768