/*--------------------------------*- C++ -*----------------------------------*\
| =========                 |                                                 |
| \\      /  F ield         | OpenFOAM: The Open Source CFD Toolbox           |
|  \\    /   O peration     | Version:  2306                                  |
|   \\  /    A nd           | Website:  www.openfoam.com                      |
|    \\/     M anipulation  |                                                 |
\*---------------------------------------------------------------------------*/
FoamFile
{
    version     2.0;
    format      ascii;
    arch        "LSB;label=32;scalar=64";
    class       volVectorField;
    location    "0.04";
    object      U;
}
// * * * * * * * * * * * * * * * * * * * * * * * * * * * * * * * * * * * * * //

dimensions      [0 1 -1 0 0 0 0];

internalField   nonuniform List<vector> 
6000
(
(500 1.24999e-14 0)
(500 1.10892e-14 0)
(500 -4.73697e-14 0)
(500 4.51204e-14 0)
(500 1.11841e-13 0)
(500 1.40635e-13 0)
(500 8.00334e-14 0)
(500 5.40135e-14 0)
(500 1.17429e-13 0)
(500 4.55173e-14 0)
(500 -4.44511e-12 0)
(500 8.42456e-12 0)
(500 7.97294e-11 0)
(500 -2.15354e-09 0)
(499.999 9.61177e-09 0)
(499.998 -5.79189e-08 0)
(499.99 1.03458e-07 0)
(499.966 -4.58906e-07 0)
(499.896 -1.22566e-06 0)
(499.719 1.52641e-06 0)
(499.38 -9.14472e-06 0)
(499.016 2.75895e-07 0)
(498.914 -4.06306e-06 0)
(498.938 4.55113e-05 0)
(499.078 1.5187e-05 0)
(499.427 -0.00143749 0)
(500.005 0.00341095 0)
(500.749 0.00240278 0)
(501.564 -0.00982921 0)
(502.349 0.00199526 0)
(503.012 0.0164867 0)
(503.545 -0.0020242 0)
(503.948 -0.0134315 0)
(504.241 -0.00192569 0)
(504.443 0.0115918 0)
(504.595 0.00796697 0)
(504.727 -0.00348086 0)
(504.841 -0.00729774 0)
(504.939 -0.0038072 0)
(505.018 0.00330616 0)
(505.079 0.00585007 0)
(505.133 0.00108801 0)
(505.183 -0.00309314 0)
(505.229 -0.00349427 0)
(505.272 -0.00117262 0)
(505.305 0.00211437 0)
(505.318 0.00194062 0)
(505.319 0.000118334 0)
(505.319 -0.00130677 0)
(505.318 -0.00159404 0)
(505.313 -0.000678328 0)
(505.302 0.000316594 0)
(505.284 0.000786467 0)
(505.262 0.000727443 0)
(505.239 -0.000310215 0)
(505.219 -0.00122723 0)
(505.202 -0.000495584 0)
(505.188 0.000658738 0)
(505.175 0.000879454 0)
(505.164 0.000296069 0)
(505.154 -0.000512126 0)
(505.146 -0.000577461 0)
(505.139 -2.77485e-05 0)
(505.133 0.000326765 0)
(505.127 0.000414029 0)
(505.124 0.000188975 0)
(505.121 -9.42174e-05 0)
(505.118 -0.000193748 0)
(505.116 -0.000162458 0)
(505.114 1.59435e-05 0)
(505.111 0.000154506 0)
(505.109 0.000117909 0)
(505.108 5.83081e-06 0)
(505.108 -7.59534e-05 0)
(505.108 -7.73316e-05 0)
(505.109 -2.90246e-05 0)
(505.112 5.668e-05 0)
(505.117 7.85375e-05 0)
(505.124 4.43379e-05 0)
(505.132 1.80576e-05 0)
(505.142 -7.92023e-05 0)
(505.152 -0.000137583 0)
(505.161 3.56932e-05 0)
(505.169 0.000280154 0)
(505.176 7.46307e-05 0)
(505.182 -0.000202214 0)
(505.188 -0.00017182 0)
(505.194 -3.72173e-05 0)
(505.199 6.20764e-05 0)
(505.203 7.36881e-05 0)
(505.205 5.71449e-05 0)
(505.205 -1.2057e-05 0)
(505.205 -5.08113e-05 0)
(505.204 -5.06144e-05 0)
(505.202 -4.00761e-05 0)
(505.197 -1.11163e-05 0)
(505.19 2.20824e-05 0)
(505.182 7.6611e-06 0)
(505.175 -6.64344e-05 0)
(505.169 -6.95622e-05 0)
(505.165 -1.61327e-05 0)
(505.161 9.29524e-06 0)
(505.158 2.35088e-05 0)
(505.154 3.18112e-05 0)
(505.151 3.5737e-05 0)
(505.149 3.92052e-05 0)
(505.147 1.72919e-05 0)
(505.145 -3.5231e-05 0)
(505.144 -5.9154e-05 0)
(505.142 -6.87179e-05 0)
(505.14 -7.57671e-05 0)
(505.137 -3.81393e-05 0)
(505.134 -3.35966e-07 0)
(505.13 2.66444e-05 0)
(505.123 2.61156e-05 0)
(505.115 -1.79748e-05 0)
(505.108 1.87558e-05 0)
(505.106 4.56164e-05 0)
(505.107 7.94181e-05 0)
(505.108 9.22598e-05 0)
(505.114 8.87788e-05 0)
(505.124 4.3504e-05 0)
(505.137 4.0047e-05 0)
(505.15 4.01764e-05 0)
(505.159 -7.46261e-05 0)
(505.164 -0.000171192 0)
(505.168 -0.000156107 0)
(505.171 -7.28125e-05 0)
(505.174 -1.69289e-05 0)
(505.179 -2.48691e-05 0)
(505.183 -6.39474e-05 0)
(505.188 -3.02319e-05 0)
(505.193 9.86217e-05 0)
(505.197 0.000156276 0)
(505.2 0.000187545 0)
(505.202 0.000190189 0)
(505.203 0.00014173 0)
(505.203 5.6635e-05 0)
(505.203 -4.43246e-05 0)
(505.201 -0.000108757 0)
(505.197 -0.000131797 0)
(505.192 -0.000135248 0)
(505.185 -0.000130045 0)
(505.178 -0.00012132 0)
(505.172 -0.000105681 0)
(505.166 -7.36618e-05 0)
(505.162 -1.86728e-05 0)
(505.158 6.72469e-05 0)
(505.155 0.000148179 0)
(505.152 0.000197362 0)
(505.15 0.000214666 0)
(505.148 0.000196401 0)
(505.147 0.000107804 0)
(505.146 8.94437e-06 0)
(505.145 -5.87305e-05 0)
(505.144 -0.000108614 0)
(505.142 -0.000136139 0)
(505.141 -0.000152675 0)
(505.139 -0.000135626 0)
(505.136 -9.34479e-05 0)
(505.133 -8.29132e-05 0)
(505.129 -5.81669e-05 0)
(505.122 -4.65956e-05 0)
(505.113 1.56458e-05 0)
(505.103 0.000156022 0)
(505.1 0.000173978 0)
(505.101 0.000104935 0)
(505.104 5.73158e-05 0)
(505.11 2.63518e-05 0)
(505.122 -2.35733e-05 0)
(505.136 2.86165e-05 0)
(505.15 -2.12876e-05 0)
(505.16 -0.00017835 0)
(505.167 -0.000185195 0)
(505.172 -0.000123087 0)
(505.175 -7.89992e-05 0)
(505.177 -3.11067e-05 0)
(505.18 3.69325e-05 0)
(505.184 8.20417e-05 0)
(505.187 0.00011446 0)
(505.191 0.000136088 0)
(505.195 8.24546e-05 0)
(505.199 2.88326e-05 0)
(505.204 9.2928e-06 0)
(505.207 -1.2757e-05 0)
(505.208 -2.90392e-05 0)
(505.208 -4.56578e-05 0)
(505.207 -6.95891e-05 0)
(505.205 -7.91831e-05 0)
(505.201 -7.64222e-05 0)
(505.195 -6.53163e-05 0)
(505.187 -2.53904e-05 0)
(505.18 6.49041e-06 0)
(505.173 2.17676e-05 0)
(505.167 3.80263e-05 0)
(505.162 4.71571e-05 0)
(505.158 2.39261e-05 0)
(505.156 -1.47828e-05 0)
(505.154 -3.32827e-05 0)
(505.151 -3.53485e-05 0)
(505.149 -3.20565e-05 0)
(505.148 -2.13613e-05 0)
(505.146 -1.14168e-05 0)
(505.145 -3.84464e-06 0)
(505.143 -1.25607e-06 0)
(505.141 -2.1188e-06 0)
(505.139 -5.37921e-06 0)
(505.136 1.49019e-05 0)
(505.133 5.74308e-05 0)
(505.129 8.01396e-05 0)
(505.126 6.93354e-05 0)
(505.121 7.95997e-06 0)
(505.114 -1.74383e-05 0)
(505.103 -3.75419e-05 0)
(505.092 -8.51769e-05 0)
(505.089 -0.000100775 0)
(505.09 -8.90141e-05 0)
(505.093 -6.4555e-05 0)
(505.103 1.74954e-05 0)
(505.118 -8.53356e-06 0)
(505.135 -7.45827e-05 0)
(505.15 8.81087e-05 0)
(505.161 0.000139014 0)
(505.168 0.000146085 0)
(505.173 7.17356e-05 0)
(505.178 1.30438e-05 0)
(505.182 -8.11931e-06 0)
(505.187 -2.39216e-05 0)
(505.191 -5.45549e-05 0)
(505.195 -8.20245e-05 0)
(505.199 -8.68877e-05 0)
(505.202 -6.11936e-05 0)
(505.206 3.02031e-05 0)
(505.21 0.000105911 0)
(505.214 0.000113372 0)
(505.216 0.000114754 0)
(505.216 0.000115754 0)
(505.216 0.000103406 0)
(505.215 4.01132e-05 0)
(505.212 -3.2198e-05 0)
(505.206 -6.93407e-05 0)
(505.199 -8.34305e-05 0)
(505.192 -9.15841e-05 0)
(505.184 -0.000107349 0)
(505.176 -8.74433e-05 0)
(505.169 -6.97371e-06 0)
(505.164 6.14718e-05 0)
(505.159 0.000100565 0)
(505.154 0.000142619 0)
(505.15 0.000158623 0)
(505.148 0.00012025 0)
(505.146 -1.7293e-05 0)
(505.144 -9.75033e-05 0)
(505.141 -0.000126705 0)
(505.138 -0.000145186 0)
(505.134 -0.000160664 0)
(505.13 -0.000107065 0)
(505.126 -8.67412e-06 0)
(505.122 2.32655e-05 0)
(505.117 4.91023e-05 0)
(505.112 6.78645e-05 0)
(505.103 8.68322e-05 0)
(505.091 3.75676e-05 0)
(505.076 7.57831e-05 0)
(505.065 0.000140267 0)
(505.065 7.27044e-05 0)
(505.068 5.4287e-05 0)
(505.08 5.77031e-05 0)
(505.1 8.30528e-05 0)
(505.123 -5.14759e-05 0)
(505.144 -0.000299713 0)
(505.16 -0.000339447 0)
(505.168 -0.000167412 0)
(505.172 0.000159801 0)
(505.177 0.00032845 0)
(505.182 0.000342478 0)
(505.188 0.000320785 0)
(505.195 0.000238902 0)
(505.202 -1.74721e-06 0)
(505.208 -0.000216593 0)
(505.213 -0.000260276 0)
(505.218 -0.000304945 0)
(505.221 -0.000297119 0)
(505.223 -6.82942e-05 0)
(505.224 0.000156538 0)
(505.227 0.000197125 0)
(505.229 0.000173964 0)
(505.229 0.000112285 0)
(505.227 1.0916e-05 0)
(505.224 -0.000103375 0)
(505.22 -0.000191923 0)
(505.213 -0.000331526 0)
(505.204 -0.000351977 0)
(505.194 -1.56331e-05 0)
(505.183 0.000313761 0)
(505.174 0.000521898 0)
(505.163 0.000588404 0)
(505.157 0.000687756 0)
(505.148 0.000995355 0)
(505.259 0.00131729 0)
(500 -2.97619e-14 0)
(500 1.52692e-14 0)
(500 -2.94047e-14 0)
(500 1.76955e-13 0)
(500 2.78293e-13 0)
(500 3.63177e-13 0)
(500 2.75499e-13 0)
(500 8.53599e-14 0)
(500 -4.38889e-14 0)
(500 1.93909e-12 0)
(500 -1.87958e-11 0)
(500 1.11316e-10 0)
(500 -3.6653e-10 0)
(500 9.02603e-10 0)
(499.999 -4.23244e-09 0)
(499.998 6.62956e-08 0)
(499.99 -3.89042e-07 0)
(499.966 2.0322e-06 0)
(499.896 -5.45422e-06 0)
(499.719 1.05897e-05 0)
(499.38 -9.51901e-06 0)
(499.016 -5.99567e-06 0)
(498.914 2.57544e-06 0)
(498.938 5.08932e-05 0)
(499.078 -6.44176e-05 0)
(499.427 -0.00115923 0)
(500.005 0.00338763 0)
(500.752 0.000799414 0)
(501.566 -0.0101419 0)
(502.344 0.00461866 0)
(503.014 0.0149939 0)
(503.553 -0.00473004 0)
(503.95 -0.0150936 0)
(504.237 0.000153427 0)
(504.44 0.0131223 0)
(504.6 0.00767375 0)
(504.733 -0.00443227 0)
(504.843 -0.00918474 0)
(504.938 -0.00404347 0)
(505.016 0.00517657 0)
(505.08 0.00684405 0)
(505.136 0.00192707 0)
(505.186 -0.00377266 0)
(505.23 -0.00451032 0)
(505.271 -0.00122817 0)
(505.304 0.00300068 0)
(505.319 0.00291695 0)
(505.32 0.00060104 0)
(505.32 -0.00158976 0)
(505.319 -0.00191687 0)
(505.313 -0.0011014 0)
(505.302 0.000501167 0)
(505.284 0.00145776 0)
(505.262 0.0011377 0)
(505.239 -0.000538916 0)
(505.219 -0.00159374 0)
(505.202 -0.000812435 0)
(505.187 0.000649435 0)
(505.175 0.00105358 0)
(505.164 0.000374058 0)
(505.154 -0.000707441 0)
(505.146 -0.000855136 0)
(505.139 -0.000154423 0)
(505.132 0.000531084 0)
(505.128 0.000674249 0)
(505.124 0.000300969 0)
(505.121 -0.000213661 0)
(505.118 -0.000330497 0)
(505.116 -0.000286283 0)
(505.114 -1.90322e-05 0)
(505.112 0.000160928 0)
(505.109 0.000134901 0)
(505.108 -3.87756e-05 0)
(505.108 -0.000179484 0)
(505.108 -0.000177535 0)
(505.109 -9.369e-05 0)
(505.112 8.24128e-05 0)
(505.117 0.000143532 0)
(505.124 0.000101109 0)
(505.132 6.27132e-05 0)
(505.142 -7.92026e-05 0)
(505.152 -0.000161441 0)
(505.161 7.35219e-05 0)
(505.169 0.000355586 0)
(505.176 0.000106677 0)
(505.183 -0.000300291 0)
(505.188 -0.000301906 0)
(505.194 -0.000131973 0)
(505.199 2.09617e-05 0)
(505.203 0.000100113 0)
(505.205 8.56685e-05 0)
(505.205 1.51962e-05 0)
(505.205 -5.76589e-05 0)
(505.204 -7.66781e-05 0)
(505.202 -7.59765e-05 0)
(505.197 -5.23366e-05 0)
(505.19 3.35986e-06 0)
(505.182 1.94304e-05 0)
(505.175 -2.69555e-05 0)
(505.169 -1.17814e-05 0)
(505.165 3.70829e-05 0)
(505.161 -1.40897e-05 0)
(505.158 -4.52403e-05 0)
(505.154 -9.70643e-06 0)
(505.151 8.27417e-05 0)
(505.149 0.000177536 0)
(505.147 0.000261445 0)
(505.145 8.46596e-05 0)
(505.144 -0.000102204 0)
(505.142 -0.000171061 0)
(505.14 -0.000242089 0)
(505.137 -0.000234799 0)
(505.134 -0.000114332 0)
(505.13 -5.18788e-05 0)
(505.123 1.02187e-05 0)
(505.115 -2.61656e-05 0)
(505.108 -2.34397e-05 0)
(505.106 -1.02492e-05 0)
(505.107 7.90547e-05 0)
(505.109 0.000183762 0)
(505.114 0.000243938 0)
(505.124 0.000248687 0)
(505.137 0.000340801 0)
(505.15 0.000310903 0)
(505.159 -4.31115e-05 0)
(505.164 -0.000345797 0)
(505.168 -0.00042177 0)
(505.171 -0.00034423 0)
(505.174 -0.000222091 0)
(505.179 -0.000176052 0)
(505.183 -0.000245159 0)
(505.188 -0.000290892 0)
(505.193 -0.000150552 0)
(505.197 4.16645e-05 0)
(505.201 0.000202613 0)
(505.202 0.00037051 0)
(505.203 0.000475556 0)
(505.203 0.000477539 0)
(505.202 0.000345469 0)
(505.201 0.00011224 0)
(505.197 -0.000108566 0)
(505.192 -0.000230217 0)
(505.185 -0.000337326 0)
(505.178 -0.000369478 0)
(505.172 -0.000327708 0)
(505.166 -0.00026533 0)
(505.162 -0.000190822 0)
(505.158 -0.000136149 0)
(505.155 -7.44705e-05 0)
(505.152 7.54827e-05 0)
(505.15 0.000312914 0)
(505.148 0.000549638 0)
(505.147 0.000574764 0)
(505.146 0.000348078 0)
(505.145 0.000164646 0)
(505.144 4.22978e-05 0)
(505.142 -5.40297e-05 0)
(505.141 -0.000139299 0)
(505.138 -0.000228746 0)
(505.136 -0.000293354 0)
(505.133 -0.000289185 0)
(505.129 -0.000239715 0)
(505.122 -0.000264976 0)
(505.113 -0.00027805 0)
(505.104 3.12103e-05 0)
(505.101 0.000351114 0)
(505.102 0.000432899 0)
(505.104 0.000366225 0)
(505.11 0.00030723 0)
(505.121 0.000187344 0)
(505.136 0.000200067 0)
(505.15 8.97987e-05 0)
(505.16 -0.000197645 0)
(505.167 -0.000270156 0)
(505.172 -0.000253922 0)
(505.175 -0.000334948 0)
(505.177 -0.000347569 0)
(505.18 -0.000226831 0)
(505.184 -5.82834e-05 0)
(505.187 0.00013984 0)
(505.191 0.000356864 0)
(505.195 0.000407137 0)
(505.199 0.000252343 0)
(505.204 0.000154645 0)
(505.207 9.69236e-05 0)
(505.208 5.23963e-05 0)
(505.208 1.36578e-05 0)
(505.207 -5.99674e-05 0)
(505.204 -0.000163661 0)
(505.201 -0.000178805 0)
(505.195 -0.000177005 0)
(505.187 -0.000174614 0)
(505.18 -0.000142148 0)
(505.173 -5.1812e-05 0)
(505.167 9.49963e-05 0)
(505.162 0.000249945 0)
(505.158 0.000327877 0)
(505.156 0.00015243 0)
(505.153 -2.81261e-05 0)
(505.151 -5.63615e-05 0)
(505.149 -7.40702e-05 0)
(505.148 -6.75831e-05 0)
(505.146 -2.5783e-05 0)
(505.145 -5.44269e-06 0)
(505.143 -5.70028e-06 0)
(505.141 -1.98902e-05 0)
(505.139 -5.40884e-05 0)
(505.136 -7.25234e-05 0)
(505.133 -4.38627e-05 0)
(505.129 6.30466e-05 0)
(505.126 0.000173978 0)
(505.121 0.000217929 0)
(505.114 0.000197293 0)
(505.103 0.000147321 0)
(505.092 -2.86564e-05 0)
(505.089 -5.62594e-05 0)
(505.09 -8.20264e-05 0)
(505.093 -0.000114614 0)
(505.103 -6.33453e-05 0)
(505.118 -0.000177401 0)
(505.135 -0.000462589 0)
(505.15 -8.22184e-05 0)
(505.161 0.000187629 0)
(505.168 0.0002733 0)
(505.174 0.000301917 0)
(505.178 0.000223018 0)
(505.182 0.000140709 0)
(505.187 9.35992e-05 0)
(505.191 -1.18167e-05 0)
(505.195 -0.000115819 0)
(505.199 -0.00018413 0)
(505.202 -0.000267796 0)
(505.206 -0.000243925 0)
(505.21 -4.62236e-05 0)
(505.214 5.73244e-06 0)
(505.216 8.34541e-05 0)
(505.216 0.000217457 0)
(505.216 0.000390723 0)
(505.214 0.000465068 0)
(505.211 0.000303411 0)
(505.206 2.76502e-05 0)
(505.199 -0.000175581 0)
(505.192 -0.000254611 0)
(505.184 -0.000361369 0)
(505.176 -0.000420426 0)
(505.169 -0.000273221 0)
(505.164 -0.000119235 0)
(505.159 1.78766e-05 0)
(505.154 0.000194394 0)
(505.15 0.000400004 0)
(505.148 0.00054738 0)
(505.146 0.000397534 0)
(505.144 2.9011e-05 0)
(505.141 -0.000214197 0)
(505.138 -0.000350161 0)
(505.134 -0.00047615 0)
(505.13 -0.000518893 0)
(505.126 -0.000302861 0)
(505.122 -8.56066e-05 0)
(505.117 -2.2259e-05 0)
(505.112 3.85406e-05 0)
(505.103 0.000109347 0)
(505.091 0.000101814 0)
(505.075 2.00398e-05 0)
(505.065 -1.34401e-05 0)
(505.065 0.000159797 0)
(505.068 0.00019784 0)
(505.08 0.000266075 0)
(505.1 0.000451819 0)
(505.123 0.000360275 0)
(505.144 -0.000218918 0)
(505.159 -0.000745103 0)
(505.168 -0.000874258 0)
(505.173 -0.000514346 0)
(505.177 1.49043e-05 0)
(505.183 0.000299208 0)
(505.189 0.000646586 0)
(505.195 0.000993159 0)
(505.201 0.000929313 0)
(505.208 0.000353534 0)
(505.213 -0.000121674 0)
(505.218 -0.000577738 0)
(505.221 -0.00102201 0)
(505.223 -0.00102766 0)
(505.225 -0.000368798 0)
(505.227 0.000289714 0)
(505.229 0.000413095 0)
(505.229 0.000416946 0)
(505.227 0.000445219 0)
(505.224 0.000398143 0)
(505.219 0.000188962 0)
(505.212 -0.000350152 0)
(505.203 -0.000863773 0)
(505.193 -0.000451185 0)
(505.183 0.000173791 0)
(505.174 0.00066805 0)
(505.163 0.000771131 0)
(505.157 0.000700357 0)
(505.149 0.000568397 0)
(505.261 0.000416074 0)
(500 5.21864e-14 0)
(500 4.87516e-14 0)
(500 1.2744e-13 0)
(500 3.91556e-13 0)
(500 4.77671e-13 0)
(500 6.03093e-13 0)
(500 5.36658e-13 0)
(500 2.54244e-13 0)
(500 8.22883e-14 0)
(500 2.97532e-12 0)
(500 -3.04651e-11 0)
(500 1.82743e-10 0)
(500 -6.78108e-10 0)
(500 2.40011e-09 0)
(499.999 -1.5538e-08 0)
(499.998 1.36667e-07 0)
(499.99 -8.08926e-07 0)
(499.966 3.54415e-06 0)
(499.896 -9.50259e-06 0)
(499.719 1.61841e-05 0)
(499.38 -6.19034e-06 0)
(499.016 -1.63125e-05 0)
(498.914 5.24429e-06 0)
(498.938 7.05374e-05 0)
(499.078 -0.000304153 0)
(499.427 -0.000684793 0)
(500.004 0.00432651 0)
(500.753 -0.00266422 0)
(501.566 -0.0101634 0)
(502.341 0.0107765 0)
(503.014 0.0125211 0)
(503.555 -0.0116033 0)
(503.95 -0.0155008 0)
(504.235 0.00635631 0)
(504.437 0.0145784 0)
(504.601 0.00513563 0)
(504.735 -0.0074234 0)
(504.843 -0.0104008 0)
(504.938 -0.00227228 0)
(505.015 0.00743873 0)
(505.08 0.00686495 0)
(505.138 0.000920939 0)
(505.187 -0.00468616 0)
(505.23 -0.00498112 0)
(505.271 -0.000398798 0)
(505.303 0.0036824 0)
(505.319 0.00319914 0)
(505.321 0.000688692 0)
(505.321 -0.00188864 0)
(505.32 -0.00211831 0)
(505.313 -0.00134869 0)
(505.302 0.000657742 0)
(505.284 0.0018219 0)
(505.263 0.00130349 0)
(505.24 -0.000800929 0)
(505.22 -0.00171608 0)
(505.202 -0.000872788 0)
(505.187 0.000775952 0)
(505.175 0.00125876 0)
(505.164 0.000366912 0)
(505.155 -0.000837453 0)
(505.146 -0.000888856 0)
(505.139 -9.67029e-05 0)
(505.133 0.000652224 0)
(505.128 0.000781131 0)
(505.124 0.000373107 0)
(505.121 -0.000285616 0)
(505.118 -0.000445925 0)
(505.116 -0.000383731 0)
(505.114 -2.80793e-05 0)
(505.112 0.000257415 0)
(505.109 0.00023057 0)
(505.108 -2.58629e-05 0)
(505.108 -0.000252708 0)
(505.108 -0.000258962 0)
(505.109 -0.000138694 0)
(505.112 0.000120896 0)
(505.117 0.000207648 0)
(505.124 0.000165641 0)
(505.132 0.000109599 0)
(505.142 -0.000110327 0)
(505.152 -0.000236992 0)
(505.161 7.33822e-05 0)
(505.169 0.000378776 0)
(505.176 6.8301e-05 0)
(505.183 -0.000354304 0)
(505.188 -0.000344643 0)
(505.194 -0.00014995 0)
(505.199 4.12373e-05 0)
(505.203 0.000145068 0)
(505.205 0.000124647 0)
(505.205 3.06671e-05 0)
(505.205 -5.76605e-05 0)
(505.204 -6.37743e-05 0)
(505.202 -4.57937e-05 0)
(505.197 -1.54937e-05 0)
(505.19 1.41188e-05 0)
(505.182 -2.24203e-05 0)
(505.175 -0.000100866 0)
(505.169 -9.40398e-05 0)
(505.165 3.29041e-05 0)
(505.161 7.87991e-05 0)
(505.158 -2.8422e-05 0)
(505.155 -5.30017e-05 0)
(505.152 1.36423e-05 0)
(505.149 0.000153448 0)
(505.147 0.00027875 0)
(505.145 0.000265799 0)
(505.143 2.53974e-05 0)
(505.142 -0.000154536 0)
(505.139 -0.000255367 0)
(505.137 -0.00029456 0)
(505.134 -0.000208984 0)
(505.13 -0.000139817 0)
(505.124 -4.61207e-05 0)
(505.115 -3.90641e-05 0)
(505.108 -2.20018e-05 0)
(505.106 4.24456e-05 0)
(505.107 4.29518e-05 0)
(505.109 8.92761e-05 0)
(505.114 0.000184596 0)
(505.124 0.000210427 0)
(505.137 0.000418486 0)
(505.149 0.00046953 0)
(505.159 -1.61937e-05 0)
(505.164 -0.000418976 0)
(505.168 -0.000437794 0)
(505.171 -0.000332036 0)
(505.175 -0.000275712 0)
(505.179 -0.000261535 0)
(505.183 -0.000313194 0)
(505.188 -0.000302641 0)
(505.193 -0.000251601 0)
(505.197 -7.37329e-05 0)
(505.201 0.000195261 0)
(505.202 0.000451422 0)
(505.203 0.000605961 0)
(505.203 0.000618292 0)
(505.202 0.000498255 0)
(505.2 0.000252219 0)
(505.197 -7.25089e-05 0)
(505.191 -0.000293355 0)
(505.185 -0.000400265 0)
(505.178 -0.000418793 0)
(505.172 -0.00037328 0)
(505.167 -0.000283653 0)
(505.162 -0.000227839 0)
(505.158 -0.000199691 0)
(505.155 -0.000161367 0)
(505.153 4.03103e-05 0)
(505.151 0.00039085 0)
(505.149 0.000650777 0)
(505.147 0.000668505 0)
(505.146 0.000497041 0)
(505.145 0.000211338 0)
(505.144 -1.10798e-05 0)
(505.142 -0.0001541 0)
(505.14 -0.000286205 0)
(505.138 -0.000368444 0)
(505.136 -0.000357721 0)
(505.133 -0.000353091 0)
(505.129 -0.000300721 0)
(505.123 -0.000327761 0)
(505.113 -0.000317873 0)
(505.104 -7.52158e-06 0)
(505.101 0.000485037 0)
(505.102 0.000490518 0)
(505.104 0.000440096 0)
(505.11 0.00032037 0)
(505.121 0.000197731 0)
(505.135 0.000188852 0)
(505.15 -3.02956e-05 0)
(505.16 -0.000312845 0)
(505.167 -0.000264161 0)
(505.171 -0.000256235 0)
(505.174 -0.000425206 0)
(505.177 -0.00046785 0)
(505.181 -0.000431548 0)
(505.184 -0.000237539 0)
(505.188 0.000122949 0)
(505.191 0.000458203 0)
(505.195 0.000565434 0)
(505.199 0.000440451 0)
(505.203 0.000174314 0)
(505.207 2.56856e-05 0)
(505.208 -6.72021e-05 0)
(505.208 -0.00012989 0)
(505.207 -0.000223443 0)
(505.204 -0.000249348 0)
(505.201 -0.000236343 0)
(505.195 -0.000221999 0)
(505.187 -0.000211068 0)
(505.18 -0.000183641 0)
(505.173 -7.20087e-05 0)
(505.167 0.000127131 0)
(505.162 0.000305866 0)
(505.158 0.000374942 0)
(505.155 0.00026742 0)
(505.153 -3.42112e-05 0)
(505.151 -0.000127358 0)
(505.149 -0.000144402 0)
(505.148 -0.0001641 0)
(505.146 -0.000151874 0)
(505.145 -3.67782e-05 0)
(505.143 -2.57746e-07 0)
(505.141 -9.5688e-06 0)
(505.139 -4.47344e-05 0)
(505.136 -9.15546e-05 0)
(505.133 -6.35165e-05 0)
(505.13 6.23554e-05 0)
(505.126 0.000228845 0)
(505.121 0.000231838 0)
(505.114 0.000200436 0)
(505.103 0.000165202 0)
(505.092 -8.51301e-05 0)
(505.089 -0.000118832 0)
(505.089 -0.000177138 0)
(505.093 -0.000223994 0)
(505.103 -0.000117985 0)
(505.118 -0.00029714 0)
(505.135 -0.000540764 0)
(505.15 -0.000162823 0)
(505.161 0.000273346 0)
(505.169 0.000398196 0)
(505.174 0.000410145 0)
(505.178 0.000307919 0)
(505.182 0.000181987 0)
(505.186 0.000107648 0)
(505.191 -9.0702e-06 0)
(505.195 -0.000124506 0)
(505.199 -0.000205805 0)
(505.202 -0.000309497 0)
(505.206 -0.000342846 0)
(505.21 -0.000208182 0)
(505.214 -6.97059e-05 0)
(505.216 4.7063e-05 0)
(505.216 0.000242458 0)
(505.216 0.00047153 0)
(505.215 0.000579178 0)
(505.211 0.00050764 0)
(505.206 0.000265532 0)
(505.199 -8.74168e-05 0)
(505.191 -0.000290802 0)
(505.184 -0.000393053 0)
(505.176 -0.000485785 0)
(505.169 -0.000389899 0)
(505.164 -0.000204844 0)
(505.159 -4.00748e-05 0)
(505.155 0.000140352 0)
(505.151 0.000364491 0)
(505.148 0.000623882 0)
(505.146 0.000673961 0)
(505.143 0.000397677 0)
(505.14 -2.96746e-05 0)
(505.137 -0.000413302 0)
(505.134 -0.000575813 0)
(505.13 -0.000603149 0)
(505.126 -0.000509913 0)
(505.122 -0.000212712 0)
(505.117 4.65856e-05 0)
(505.112 0.000100845 0)
(505.103 0.000181616 0)
(505.091 0.000202591 0)
(505.075 0.000285578 0)
(505.065 0.000233946 0)
(505.065 0.000242073 0)
(505.068 0.000232593 0)
(505.08 0.000246875 0)
(505.1 0.000406801 0)
(505.123 0.000226837 0)
(505.144 -0.00029622 0)
(505.159 -0.000731 0)
(505.168 -0.000883777 0)
(505.173 -0.00072847 0)
(505.178 -0.000308168 0)
(505.184 3.96108e-05 0)
(505.19 0.000582514 0)
(505.196 0.00108436 0)
(505.201 0.00117285 0)
(505.207 0.00080681 0)
(505.212 0.000315973 0)
(505.217 -0.000370205 0)
(505.22 -0.000972959 0)
(505.223 -0.0012946 0)
(505.226 -0.00103114 0)
(505.228 -0.000231667 0)
(505.23 0.000395234 0)
(505.229 0.000607432 0)
(505.227 0.000662962 0)
(505.224 0.000661061 0)
(505.219 0.000495979 0)
(505.211 -2.25385e-05 0)
(505.202 -0.000622347 0)
(505.193 -0.00041203 0)
(505.184 0.000113892 0)
(505.174 0.000426515 0)
(505.164 0.000477699 0)
(505.158 0.000261207 0)
(505.149 0.00029236 0)
(505.261 0.000428159 0)
(500 8.68946e-14 0)
(500 1.84803e-13 0)
(500 3.36888e-13 0)
(500 5.18059e-13 0)
(500 5.56066e-13 0)
(500 5.40705e-13 0)
(500 4.41401e-13 0)
(500 3.60224e-13 0)
(500 1.85507e-13 0)
(500 3.94353e-12 0)
(500 -3.81386e-11 0)
(500 2.2517e-10 0)
(500 -9.28027e-10 0)
(500 4.13052e-09 0)
(499.999 -2.88409e-08 0)
(499.998 2.1607e-07 0)
(499.99 -1.22228e-06 0)
(499.966 4.9247e-06 0)
(499.896 -1.30163e-05 0)
(499.719 1.97855e-05 0)
(499.38 -1.65597e-06 0)
(499.016 -2.94275e-05 0)
(498.914 7.08997e-06 0)
(498.938 7.63348e-05 0)
(499.078 -0.000537158 0)
(499.427 0.000152093 0)
(500.004 0.00447544 0)
(500.753 -0.00655294 0)
(501.566 -0.00726457 0)
(502.339 0.0158889 0)
(503.016 0.00731319 0)
(503.554 -0.0179699 0)
(503.95 -0.0111738 0)
(504.232 0.0124754 0)
(504.436 0.0135659 0)
(504.603 0.000865549 0)
(504.735 -0.0102023 0)
(504.843 -0.00981222 0)
(504.937 0.00163436 0)
(505.013 0.00852418 0)
(505.08 0.00571102 0)
(505.138 -0.00108202 0)
(505.187 -0.00551106 0)
(505.23 -0.00454204 0)
(505.271 0.00124424 0)
(505.303 0.00383563 0)
(505.319 0.00292032 0)
(505.321 0.000182197 0)
(505.322 -0.00218248 0)
(505.32 -0.00222099 0)
(505.313 -0.00116096 0)
(505.301 0.000989927 0)
(505.284 0.00205059 0)
(505.263 0.00115462 0)
(505.24 -0.00108527 0)
(505.22 -0.00165996 0)
(505.202 -0.000646192 0)
(505.188 0.000958024 0)
(505.176 0.00124824 0)
(505.165 0.000174535 0)
(505.155 -0.000864961 0)
(505.147 -0.000736889 0)
(505.139 1.08719e-05 0)
(505.133 0.000706045 0)
(505.128 0.000789818 0)
(505.124 0.000355606 0)
(505.121 -0.000337597 0)
(505.118 -0.000474836 0)
(505.116 -0.000398117 0)
(505.114 -1.67528e-05 0)
(505.112 0.00026109 0)
(505.109 0.000210758 0)
(505.108 -7.93882e-05 0)
(505.108 -0.000284068 0)
(505.108 -0.000289944 0)
(505.11 -0.00015227 0)
(505.112 0.000152432 0)
(505.117 0.000260019 0)
(505.124 0.000210358 0)
(505.132 0.000135695 0)
(505.142 -0.000121372 0)
(505.152 -0.000264899 0)
(505.161 5.00768e-05 0)
(505.169 0.000337538 0)
(505.176 3.28725e-05 0)
(505.183 -0.000345624 0)
(505.189 -0.000326943 0)
(505.194 -0.000125059 0)
(505.199 4.84103e-05 0)
(505.204 9.40969e-05 0)
(505.205 7.71363e-05 0)
(505.206 2.39299e-05 0)
(505.205 2.88008e-07 0)
(505.204 4.3943e-05 0)
(505.202 3.60054e-05 0)
(505.197 -8.90804e-06 0)
(505.19 -1.78234e-05 0)
(505.182 -0.000100601 0)
(505.175 -0.000236183 0)
(505.169 -0.000200828 0)
(505.165 -3.21008e-05 0)
(505.161 0.000117557 0)
(505.158 8.21326e-05 0)
(505.155 -3.09208e-05 0)
(505.152 -1.69878e-05 0)
(505.149 9.85746e-05 0)
(505.147 0.000251596 0)
(505.145 0.000342174 0)
(505.143 0.000276351 0)
(505.141 6.36085e-05 0)
(505.139 -0.000153261 0)
(505.137 -0.000258012 0)
(505.134 -0.000241468 0)
(505.13 -0.000200235 0)
(505.124 -0.000119371 0)
(505.115 -8.66899e-05 0)
(505.108 -6.27835e-05 0)
(505.106 -4.70646e-05 0)
(505.107 -3.46489e-05 0)
(505.109 0.00014076 0)
(505.115 0.000194048 0)
(505.124 0.000154061 0)
(505.137 0.000362327 0)
(505.149 0.000532308 0)
(505.158 5.25822e-05 0)
(505.164 -0.00034643 0)
(505.167 -0.000383731 0)
(505.171 -0.000372302 0)
(505.175 -0.000392385 0)
(505.179 -0.000437509 0)
(505.183 -0.000407017 0)
(505.188 -0.000295469 0)
(505.193 -0.0002117 0)
(505.198 -7.34739e-06 0)
(505.201 0.000293456 0)
(505.203 0.000528687 0)
(505.203 0.000606618 0)
(505.203 0.000594565 0)
(505.202 0.000391058 0)
(505.2 0.000202474 0)
(505.196 -7.3098e-05 0)
(505.191 -0.000293733 0)
(505.185 -0.000404811 0)
(505.178 -0.000437353 0)
(505.172 -0.000410762 0)
(505.167 -0.000363421 0)
(505.162 -0.000312569 0)
(505.158 -0.000228778 0)
(505.155 -2.75962e-05 0)
(505.153 0.000379625 0)
(505.151 0.000627956 0)
(505.149 0.00068764 0)
(505.147 0.000699914 0)
(505.146 0.000577307 0)
(505.144 0.000340105 0)
(505.143 -4.72912e-06 0)
(505.142 -0.000223941 0)
(505.14 -0.000366507 0)
(505.138 -0.000451202 0)
(505.136 -0.000461559 0)
(505.133 -0.000464907 0)
(505.129 -0.000402638 0)
(505.123 -0.000342586 0)
(505.113 -0.000257014 0)
(505.105 0.000201295 0)
(505.102 0.000619957 0)
(505.102 0.000665988 0)
(505.104 0.000578547 0)
(505.11 0.000379667 0)
(505.121 0.000283813 0)
(505.135 0.000202297 0)
(505.149 -0.00012161 0)
(505.16 -0.00032348 0)
(505.167 -0.000362237 0)
(505.171 -0.000486954 0)
(505.174 -0.00055609 0)
(505.178 -0.000535126 0)
(505.181 -0.000426202 0)
(505.184 -0.000114874 0)
(505.188 0.000292709 0)
(505.192 0.000529332 0)
(505.195 0.000690876 0)
(505.199 0.000613482 0)
(505.203 0.000379683 0)
(505.207 0.000121877 0)
(505.208 -0.000101344 0)
(505.208 -0.000227125 0)
(505.207 -0.000367732 0)
(505.205 -0.000395224 0)
(505.201 -0.000361529 0)
(505.195 -0.000301121 0)
(505.187 -0.000242059 0)
(505.18 -0.000160264 0)
(505.174 -7.22505e-07 0)
(505.168 0.000217419 0)
(505.162 0.000371094 0)
(505.158 0.000437601 0)
(505.155 0.000426379 0)
(505.153 0.000179896 0)
(505.151 -0.000153197 0)
(505.149 -0.000231719 0)
(505.148 -0.000286113 0)
(505.146 -0.000320374 0)
(505.145 -0.000238853 0)
(505.143 -9.04378e-05 0)
(505.141 -6.14343e-05 0)
(505.139 -3.48673e-05 0)
(505.136 2.64439e-05 0)
(505.133 0.000159621 0)
(505.13 0.000320551 0)
(505.126 0.000445503 0)
(505.121 0.000386005 0)
(505.114 0.000191028 0)
(505.103 0.000230116 0)
(505.092 -0.000167364 0)
(505.089 -0.000246901 0)
(505.089 -0.000346898 0)
(505.093 -0.000375818 0)
(505.103 -0.000214 0)
(505.118 -0.00035221 0)
(505.135 -0.000510308 0)
(505.151 -3.09037e-05 0)
(505.162 0.000452057 0)
(505.169 0.000579744 0)
(505.174 0.000499744 0)
(505.178 0.00038183 0)
(505.182 0.000263215 0)
(505.186 5.94966e-05 0)
(505.19 -8.52106e-05 0)
(505.195 -0.000219798 0)
(505.199 -0.000335669 0)
(505.202 -0.000413609 0)
(505.206 -0.000341588 0)
(505.21 -0.000250285 0)
(505.214 -2.99165e-05 0)
(505.217 0.000150185 0)
(505.217 0.000403225 0)
(505.216 0.00057041 0)
(505.215 0.000596876 0)
(505.211 0.000540066 0)
(505.205 0.000362284 0)
(505.198 7.68093e-06 0)
(505.191 -0.000336719 0)
(505.184 -0.000490881 0)
(505.176 -0.000555062 0)
(505.17 -0.000521877 0)
(505.164 -0.000353034 0)
(505.159 -0.000171356 0)
(505.155 1.76762e-05 0)
(505.151 0.00031933 0)
(505.148 0.000576034 0)
(505.146 0.000567354 0)
(505.143 0.000446612 0)
(505.14 0.000158554 0)
(505.137 -0.000244183 0)
(505.134 -0.000570618 0)
(505.13 -0.000618019 0)
(505.127 -0.000585528 0)
(505.123 -0.00045653 0)
(505.118 -0.000147272 0)
(505.112 7.60929e-05 0)
(505.103 0.000205576 0)
(505.091 0.000401339 0)
(505.075 0.000457534 0)
(505.065 0.000497269 0)
(505.065 0.000460512 0)
(505.068 0.000373055 0)
(505.08 0.000166163 0)
(505.099 0.00014299 0)
(505.123 -7.4316e-05 0)
(505.143 -0.000600654 0)
(505.158 -0.000909636 0)
(505.167 -0.000831556 0)
(505.173 -0.000575153 0)
(505.179 -0.000428281 0)
(505.185 -1.67516e-06 0)
(505.191 0.000507007 0)
(505.196 0.00093366 0)
(505.201 0.00115075 0)
(505.206 0.000963523 0)
(505.211 0.000456851 0)
(505.216 -0.000300158 0)
(505.219 -0.00090794 0)
(505.223 -0.00114759 0)
(505.226 -0.0010684 0)
(505.229 -0.000649123 0)
(505.231 -2.38365e-05 0)
(505.229 0.000583953 0)
(505.227 0.000752855 0)
(505.223 0.000843127 0)
(505.218 0.000797956 0)
(505.211 0.000411537 0)
(505.202 -0.000310729 0)
(505.193 -0.000589385 0)
(505.184 -0.0002773 0)
(505.174 -0.000111327 0)
(505.163 -8.98962e-05 0)
(505.158 -0.000273877 0)
(505.149 -6.94125e-05 0)
(505.261 0.000242249 0)
(500 8.09846e-14 0)
(500 3.89338e-13 0)
(500 4.4895e-13 0)
(500 4.78969e-13 0)
(500 5.14165e-13 0)
(500 4.09785e-13 0)
(500 1.71337e-13 0)
(500 2.13688e-13 0)
(500 2.19644e-13 0)
(500 4.51973e-12 0)
(500 -4.07988e-11 0)
(500 2.38409e-10 0)
(500 -1.0695e-09 0)
(500 5.79861e-09 0)