/*--------------------------------*- C++ -*----------------------------------*\
| =========                 |                                                 |
| \\      /  F ield         | OpenFOAM: The Open Source CFD Toolbox           |
|  \\    /   O peration     | Version:  2306                                  |
|   \\  /    A nd           | Website:  www.openfoam.com                      |
|    \\/     M anipulation  |                                                 |
\*---------------------------------------------------------------------------*/
FoamFile
{
    version     2.0;
    format      ascii;
    arch        "LSB;label=32;scalar=64";
    class       volVectorField;
    location    "0.04";
    object      U;
}
// * * * * * * * * * * * * * * * * * * * * * * * * * * * * * * * * * * * * * //

dimensions      [0 1 -1 0 0 0 0];

internalField   nonuniform List<vector> 
6000
(
(-2561.07 0.494957 0)
(-679.382 0.97098 0)
(306.412 -1.8624 0)
(212.203 -2.612 0)
(109.656 -1.86621 0)
(-156.204 -0.96363 0)
(-264.538 -0.255358 0)
(-260.891 0.265849 0)
(-219.933 0.455873 0)
(-150.787 0.547398 0)
(-64.6799 0.761691 0)
(28.4123 0.870992 0)
(127.515 0.979749 0)
(227.509 1.02032 0)
(306.064 0.919945 0)
(338.656 0.659457 0)
(342.99 0.477726 0)
(340.537 0.132766 0)
(308.156 -0.298129 0)
(118.463 -0.757398 0)
(-117.228 -1.02898 0)
(-139.288 -1.26147 0)
(-118.924 -1.29958 0)
(-72.6976 -1.24213 0)
(-19.1198 -1.07601 0)
(29.6334 -0.872389 0)
(73.1445 -0.577729 0)
(113.759 -0.00682172 0)
(153.909 1.10816 0)
(198.412 2.489 0)
(254.17 3.55929 0)
(309.789 3.97244 0)
(331.768 4.25586 0)
(320.048 4.05848 0)
(250.339 2.83343 0)
(67.5488 0.736641 0)
(-11.3004 -0.039965 0)
(-11.3259 0.0391575 0)
(14.003 0.315554 0)
(52.9446 0.678509 0)
(89.4495 0.995739 0)
(119.124 1.21475 0)
(142 1.60512 0)
(161.763 2.25536 0)
(183.472 2.84793 0)
(216.33 2.96354 0)
(251.35 2.87669 0)
(261.422 2.46956 0)
(230.086 1.57344 0)
(137.555 -0.163494 0)
(56.1641 -1.02183 0)
(41.1985 -1.04188 0)
(54.878 -0.905029 0)
(85.3949 -0.680335 0)
(116.718 -0.500768 0)
(139.114 -0.251998 0)
(156.257 0.31717 0)
(177.291 0.658531 0)
(197.708 0.701334 0)
(201.758 0.445275 0)
(172.929 -0.150679 0)
(114.544 -0.816481 0)
(73.392 -0.946493 0)
(64.7222 -0.68361 0)
(79.7514 -0.0886354 0)
(106.633 0.78979 0)
(136.409 1.30887 0)
(162.933 1.39563 0)
(171.11 1.24679 0)
(153.525 0.974097 0)
(119.595 0.328288 0)
(94.0329 -0.453166 0)
(96.5871 -0.736059 0)
(122.232 -0.891123 0)
(142.53 -0.75919 0)
(132.301 -0.388042 0)
(111.492 -0.0179788 0)
(99.7155 0.220963 0)
(105.989 0.258406 0)
(124.107 0.205504 0)
(132.329 0.14254 0)
(130.325 0.106148 0)
(127.438 0.052896 0)
(126.644 0.0245207 0)
(126.997 -0.00301044 0)
(126.912 -0.0292619 0)
(126.061 -0.013206 0)
(123.584 0.0604982 0)
(119.642 0.177621 0)
(116.062 0.303736 0)
(115.03 0.403686 0)
(115.103 0.464773 0)
(116.363 0.502283 0)
(120.373 0.403351 0)
(127.938 0.0450422 0)
(136.244 -0.406267 0)
(140.04 -0.700206 0)
(140.44 -0.805599 0)
(139.958 -0.881335 0)
(138.174 -0.935899 0)
(135.941 -0.862713 0)
(135.357 -0.704474 0)
(135.803 -0.561245 0)
(137.083 -0.39842 0)
(139.601 -0.251185 0)
(142.379 -0.111846 0)
(144.21 0.0443024 0)
(145.314 0.189867 0)
(146.461 0.308425 0)
(148.475 0.396103 0)
(152.516 0.438147 0)
(160.028 0.438762 0)
(171.02 0.421935 0)
(178.74 0.396045 0)
(179.249 0.365297 0)
(177.087 0.321477 0)
(166.331 0.223499 0)
(139.798 0.090534 0)
(112.856 0.0157832 0)
(105.45 0.000674582 0)
(105.088 -1.03442e-06 0)
(105.093 -2.98514e-05 0)
(105.16 -5.86436e-05 0)
(105.263 -3.61829e-05 0)
(105.356 -1.38503e-05 0)
(105.425 -2.68695e-06 0)
(105.482 -4.49561e-07 0)
(105.539 -1.79885e-06 0)
(105.601 -3.90262e-06 0)
(105.667 -4.20198e-06 0)
(105.734 -3.10075e-06 0)
(105.801 -1.2504e-06 0)
(105.868 -3.00155e-07 0)
(105.935 -2.17765e-06 0)
(106.003 -3.4726e-06 0)
(106.071 -4.49267e-06 0)
(106.14 -7.57907e-06 0)
(106.211 -1.09953e-05 0)
(106.281 -1.47353e-05 0)
(106.352 -1.90508e-05 0)
(106.424 -2.13681e-05 0)
(106.496 -2.01084e-05 0)
(106.57 -1.81303e-05 0)
(106.644 -1.75412e-05 0)
(106.718 -1.75363e-05 0)
(106.793 -1.71906e-05 0)
(106.87 -1.69742e-05 0)
(106.947 -1.70851e-05 0)
(107.024 -1.82145e-05 0)
(107.103 -2.02267e-05 0)
(107.183 -2.13074e-05 0)
(107.263 -2.13576e-05 0)
(107.344 -2.07553e-05 0)
(107.426 -2.02888e-05 0)
(107.509 -1.82536e-05 0)
(107.592 -1.74252e-05 0)
(107.677 -1.59117e-05 0)
(107.762 -1.44689e-05 0)
(107.848 -1.25504e-05 0)
(107.935 -8.74061e-06 0)
(108.023 -4.49807e-06 0)
(108.112 -9.8731e-07 0)
(108.201 1.50449e-06 0)
(108.292 1.36427e-06 0)
(108.384 4.64667e-07 0)
(108.477 -1.852e-08 0)
(108.571 -3.23861e-06 0)
(108.666 -6.34495e-06 0)
(108.763 -8.44309e-06 0)
(108.86 -9.23229e-06 0)
(108.959 -1.1029e-05 0)
(109.058 -1.31922e-05 0)
(109.159 -1.45908e-05 0)
(109.261 -1.68308e-05 0)
(109.365 -1.88007e-05 0)
(109.469 -1.94403e-05 0)
(109.575 -2.33148e-05 0)
(109.681 -2.95246e-05 0)
(109.789 -3.43625e-05 0)
(109.898 -3.4757e-05 0)
(110.009 -3.90489e-05 0)
(110.121 -4.5081e-05 0)
(110.235 -5.00864e-05 0)
(110.35 -5.65411e-05 0)
(110.467 -6.05343e-05 0)
(110.585 -6.21956e-05 0)
(110.704 -6.42034e-05 0)
(110.825 -6.61055e-05 0)
(110.948 -6.99963e-05 0)
(111.073 -7.02851e-05 0)
(111.2 -6.84175e-05 0)
(111.328 -6.45406e-05 0)
(111.458 -6.30029e-05 0)
(111.59 -6.40436e-05 0)
(111.723 -6.71127e-05 0)
(111.858 -7.30019e-05 0)
(111.995 -7.5937e-05 0)
(112.134 -8.53852e-05 0)
(112.276 -8.78542e-05 0)
(112.419 -9.27771e-05 0)
(112.564 -9.16425e-05 0)
(112.711 -8.9539e-05 0)
(112.86 -8.7146e-05 0)
(113.011 -8.4313e-05 0)
(113.165 -8.39248e-05 0)
(113.322 -8.18736e-05 0)
(113.481 -7.80362e-05 0)
(113.643 -7.52378e-05 0)
(113.806 -6.94206e-05 0)
(113.972 -6.64656e-05 0)
(114.141 -6.87391e-05 0)
(114.312 -6.27959e-05 0)
(114.488 -5.08295e-05 0)
(114.666 -4.78249e-05 0)
(114.847 -5.63798e-05 0)
(115.031 -7.2357e-05 0)
(115.216 -9.04379e-05 0)
(115.404 -0.000119603 0)
(115.594 -0.00016777 0)
(115.788 -0.000228319 0)
(115.986 -0.000251262 0)
(116.188 -0.000246955 0)
(116.394 -0.000218761 0)
(116.603 -0.000155206 0)
(116.816 -6.9495e-05 0)
(117.032 7.39746e-06 0)
(117.253 5.95081e-05 0)
(117.478 8.17162e-05 0)
(117.709 8.30643e-05 0)
(117.943 8.3816e-05 0)
(118.181 9.03531e-05 0)
(118.423 8.3671e-05 0)
(118.668 4.8157e-05 0)
(118.917 -1.92183e-05 0)
(119.17 -0.000109295 0)
(119.429 -0.000211549 0)
(119.693 -0.000268542 0)
(119.963 -0.000273194 0)
(120.239 -0.000261209 0)
(120.519 -0.000240877 0)
(120.805 -0.000219157 0)
(121.095 -0.000189968 0)
(121.39 -0.000160495 0)
(121.692 -0.000131591 0)
(122.001 -0.000106211 0)
(122.316 -8.24587e-05 0)
(122.638 -6.22985e-05 0)
(122.967 -3.85021e-05 0)
(123.301 -2.27625e-05 0)
(123.642 -1.46494e-05 0)
(123.99 -6.06829e-06 0)
(124.345 -3.68131e-07 0)
(124.708 6.54317e-06 0)
(125.079 1.06766e-05 0)
(125.457 1.66613e-05 0)
(125.844 1.36447e-05 0)
(126.238 -4.81632e-06 0)
(126.639 -3.43264e-05 0)
(127.048 -6.65281e-05 0)
(127.465 -9.16164e-05 0)
(127.892 -0.000110053 0)
(128.329 -0.00011922 0)
(128.775 -0.000122487 0)
(129.231 -0.000118937 0)
(129.696 -0.000104109 0)
(130.172 -8.66819e-05 0)
(130.656 -6.70358e-05 0)
(131.137 -4.34514e-05 0)
(131.608 -1.97687e-05 0)
(132.121 6.17316e-07 0)
(132.83 1.31437e-05 0)
(133.721 1.30154e-05 0)
(134.042 2.49675e-05 0)
(133.89 3.97767e-05 0)
(132.401 3.28009e-05 0)
(124.114 1.80576e-05 0)
(92.109 4.8738e-06 0)
(32.3585 -8.20889e-07 0)
(2.46427 -1.83386e-07 0)
(0.0228444 -2.52085e-09 0)
(1.62129e-05 -2.27686e-12 0)
(6.31418e-10 5.7178e-14 0)
(-2.40377e-12 4.4909e-14 0)
(-2.34837e-12 1.25718e-13 0)
(-2.23017e-12 1.67195e-13 0)
(-2.3212e-12 1.13352e-13 0)
(-2.54169e-12 1.65166e-13 0)
(-2.58729e-12 3.22373e-13 0)
(-2.39824e-12 1.74476e-13 0)
(-2.25302e-12 1.47203e-13 0)
(-2.30716e-12 -6.28359e-14 0)
(-2.6628e-12 -1.69474e-13 0)
(-2.77792e-12 -2.07272e-13 0)
(-2.87946e-12 -2.39234e-13 0)
(-2.87795e-12 -1.60152e-13 0)
(-2.68291e-12 -7.86935e-14 0)
(-2.40577e-12 -4.5236e-14 0)
(-2.01808e-12 7.96624e-14 0)
(-1.91305e-12 1.12126e-13 0)
(-2.05298e-12 1.3399e-13 0)
(-2562.09 -0.0490193 0)
(-679.963 1.63755 0)
(306.082 -2.73821 0)
(211.989 -5.59077 0)
(110.647 -6.08145 0)
(-153.185 -3.95861 0)
(-263.039 -1.96415 0)
(-259.589 -0.592666 0)
(-218.933 0.554018 0)
(-150.261 1.30929 0)
(-64.4297 2.06659 0)
(28.5588 2.60985 0)
(127.614 3.23586 0)
(227.365 3.65476 0)
(305.529 3.52992 0)
(338.224 2.86349 0)
(342.446 1.49391 0)
(340.031 -0.000494197 0)
(307.809 -1.71182 0)
(118.874 -2.31819 0)
(-118.012 -2.36774 0)
(-140.755 -3.23982 0)
(-120.346 -3.85951 0)
(-74.2021 -4.23238 0)
(-20.7487 -4.30811 0)
(27.9724 -4.15668 0)
(71.6127 -3.6854 0)
(112.661 -2.70951 0)
(153.27 -1.25604 0)
(198.385 0.650649 0)
(255.503 3.55317 0)
(312.219 8.21878 0)
(333.614 12.8276 0)
(320.5 15.4382 0)
(244.466 14.3524 0)
(57.4767 6.13584 0)
(-14.7553 1.24624 0)
(-13.3274 0.183752 0)
(13.2625 0.369887 0)
(52.0539 1.28273 0)
(87.8572 1.727 0)
(117.22 1.43483 0)
(140.73 1.15943 0)
(161.611 1.22561 0)
(184.93 2.35814 0)
(219.41 5.07562 0)
(254.355 8.69356 0)
(261.159 10.1086 0)
(227.237 9.05809 0)
(129.543 3.82286 0)
(52.6524 -2.13009 0)
(39.9313 -3.38348 0)
(54.7039 -3.43854 0)
(85.4313 -2.52402 0)
(116.155 -1.90603 0)
(138.659 -1.85136 0)
(156.836 -1.34833 0)
(179.272 0.139555 0)
(199.356 2.35751 0)
(201.379 2.81014 0)
(170.636 2.01031 0)
(111.193 -0.856977 0)
(71.3424 -3.25629 0)
(64.2996 -3.64329 0)
(80.5602 -2.92403 0)
(108.426 -1.16843 0)
(138.627 1.0178 0)
(164.95 3.14821 0)
(172.388 4.36595 0)
(153.738 4.36614 0)
(118.23 3.23047 0)
(91.9001 0.923488 0)
(94.6167 -1.00533 0)
(120.945 -2.75444 0)
(142.756 -3.47262 0)
(133.773 -2.62718 0)
(113.108 -1.41056 0)
(100.786 -0.175333 0)
(106.516 0.426311 0)
(124.233 0.703587 0)
(132.249 0.666532 0)
(130.171 0.527556 0)
(127.301 0.302563 0)
(126.579 0.184363 0)
(126.96 0.11779 0)
(126.844 0.07383 0)
(125.952 0.00711853 0)
(123.542 -0.046872 0)
(119.845 0.0343149 0)
(116.55 0.367842 0)
(115.581 0.873053 0)
(115.653 1.25987 0)
(116.826 1.68054 0)
(120.475 1.96276 0)
(127.273 1.80778 0)
(134.929 0.876748 0)
(138.867 -0.400067 0)
(139.365 -1.38301 0)
(138.947 -2.13314 0)
(137.526 -2.81589 0)
(135.927 -3.0656 0)
(135.627 -2.79867 0)
(136.116 -2.39768 0)
(137.464 -1.85843 0)
(139.922 -1.30766 0)
(142.568 -0.854561 0)
(144.369 -0.535447 0)
(145.526 -0.279272 0)
(146.753 -0.0254299 0)
(148.834 0.261365 0)
(152.885 0.571527 0)
(160.362 0.868119 0)
(171.27 1.11028 0)
(178.841 1.21374 0)
(179.301 1.18376 0)
(177.076 1.09178 0)
(166.089 0.86633 0)
(139.349 0.469735 0)
(112.64 0.102226 0)
(105.431 0.00520345 0)
(105.087 9.94867e-05 0)
(105.092 -0.000381589 0)
(105.159 -0.000517652 0)
(105.263 -0.00028442 0)
(105.356 -5.85961e-05 0)
(105.425 2.45545e-05 0)
(105.481 1.55965e-05 0)
(105.538 -1.50451e-05 0)
(105.6 -3.22745e-05 0)
(105.666 -3.31891e-05 0)
(105.733 -2.87899e-05 0)
(105.8 -2.69421e-05 0)
(105.867 -2.75972e-05 0)
(105.934 -2.75386e-05 0)
(106.002 -2.58068e-05 0)
(106.07 -2.22063e-05 0)
(106.14 -1.73361e-05 0)
(106.21 -1.26692e-05 0)
(106.28 -8.49252e-06 0)
(106.351 -5.15323e-06 0)
(106.423 -3.34892e-06 0)
(106.496 -2.93965e-06 0)
(106.569 -2.62447e-06 0)
(106.643 -1.58414e-06 0)
(106.717 4.39524e-07 0)
(106.793 4.96121e-06 0)
(106.869 1.44951e-05 0)
(106.946 3.0434e-05 0)
(107.024 5.15409e-05 0)
(107.102 7.35155e-05 0)
(107.182 9.00019e-05 0)
(107.262 9.79861e-05 0)
(107.343 9.6202e-05 0)
(107.425 8.68543e-05 0)
(107.508 7.51385e-05 0)
(107.591 6.70028e-05 0)
(107.676 6.15984e-05 0)
(107.761 6.26084e-05 0)
(107.847 7.16162e-05 0)
(107.934 8.69286e-05 0)
(108.022 0.000105886 0)
(108.11 0.000124942 0)
(108.2 0.000140511 0)
(108.291 0.000148311 0)
(108.383 0.000146022 0)
(108.476 0.000132474 0)
(108.57 0.000110907 0)
(108.665 8.50484e-05 0)
(108.761 5.99979e-05 0)
(108.859 3.98878e-05 0)
(108.957 2.66032e-05 0)
(109.057 1.82232e-05 0)
(109.158 1.10148e-05 0)
(109.26 1.01841e-06 0)
(109.363 -1.48541e-05 0)
(109.468 -3.53147e-05 0)
(109.573 -5.15939e-05 0)
(109.68 -5.9081e-05 0)
(109.788 -6.07562e-05 0)
(109.897 -6.03451e-05 0)
(110.008 -5.94516e-05 0)
(110.12 -6.42628e-05 0)
(110.234 -7.77342e-05 0)
(110.349 -9.64329e-05 0)
(110.466 -0.000114043 0)
(110.584 -0.000121829 0)
(110.703 -0.000112999 0)
(110.824 -8.6739e-05 0)
(110.947 -4.65146e-05 0)
(111.072 -1.77998e-06 0)
(111.198 3.62489e-05 0)
(111.327 5.78107e-05 0)
(111.457 5.2691e-05 0)
(111.588 2.57883e-05 0)
(111.721 -1.66567e-05 0)
(111.856 -6.3533e-05 0)
(111.993 -0.000104475 0)
(112.133 -0.000130407 0)
(112.274 -0.000144406 0)
(112.418 -0.000143126 0)
(112.563 -0.000133201 0)
(112.709 -0.000118127 0)
(112.858 -9.53072e-05 0)
(113.009 -6.80769e-05 0)
(113.163 -4.27206e-05 0)
(113.32 -2.54901e-05 0)
(113.48 -1.15988e-05 0)
(113.641 1.7061e-05 0)
(113.804 7.99006e-05 0)
(113.97 0.000179776 0)
(114.139 0.000290416 0)
(114.311 0.000352327 0)
(114.486 0.0003513 0)
(114.664 0.000275847 0)
(114.846 0.000115786 0)
(115.029 -0.000116975 0)
(115.214 -0.000385554 0)
(115.402 -0.000625716 0)
(115.593 -0.000757637 0)
(115.787 -0.000727534 0)
(115.985 -0.000603003 0)
(116.187 -0.000396649 0)
(116.393 -0.000108738 0)
(116.602 0.000224267 0)
(116.815 0.000546824 0)
(117.031 0.000843146 0)
(117.252 0.00107968 0)
(117.477 0.00120386 0)
(117.707 0.00119062 0)
(117.941 0.0010369 0)
(118.18 0.000746948 0)
(118.421 0.000365602 0)
(118.667 -4.61735e-05 0)
(118.916 -0.000417391 0)
(119.169 -0.000664048 0)
(119.428 -0.000701375 0)
(119.693 -0.000581689 0)
(119.963 -0.000415002 0)
(120.238 -0.000248746 0)
(120.519 -9.67984e-05 0)
(120.804 2.69437e-05 0)
(121.094 0.00011255 0)
(121.39 0.000160754 0)
(121.691 0.000185044 0)
(122 0.000192225 0)
(122.315 0.000192595 0)
(122.638 0.000189106 0)
(122.966 0.000172432 0)
(123.301 0.000152218 0)
(123.641 0.000125877 0)
(123.989 8.69356e-05 0)
(124.344 4.24973e-05 0)
(124.707 1.7735e-06 0)
(125.078 -3.06295e-05 0)
(125.457 -5.96735e-05 0)
(125.844 -8.80267e-05 0)
(126.237 -0.000115805 0)
(126.639 -0.000133763 0)
(127.047 -0.000123254 0)
(127.465 -9.16249e-05 0)
(127.892 -5.79832e-05 0)
(128.329 -2.52872e-05 0)
(128.775 2.5024e-05 0)
(129.23 8.79641e-05 0)
(129.696 0.000145523 0)
(130.172 0.000190534 0)
(130.656 0.000211475 0)
(131.137 0.000204009 0)
(131.608 0.000176791 0)
(132.121 0.000132564 0)
(132.829 6.30124e-05 0)
(133.721 -9.80652e-06 0)
(134.042 -5.28623e-05 0)
(133.89 -8.69481e-05 0)
(132.402 -0.000106249 0)
(124.114 -0.000110576 0)
(92.109 -8.8433e-05 0)
(32.3585 -3.18892e-05 0)
(2.46428 -2.44726e-06 0)
(0.0228446 -2.24062e-08 0)
(1.62131e-05 -1.52735e-11 0)
(6.31237e-10 9.99599e-14 0)
(-2.27144e-12 -5.37401e-14 0)
(-2.25018e-12 4.80706e-14 0)
(-2.26005e-12 3.87815e-14 0)
(-2.28756e-12 8.26422e-14 0)
(-2.41287e-12 5.29973e-14 0)
(-2.6103e-12 1.45369e-13 0)
(-2.5028e-12 8.37919e-14 0)
(-2.35989e-12 2.88444e-15 0)
(-2.54401e-12 -1.98181e-13 0)
(-2.63142e-12 -1.14526e-13 0)
(-2.74019e-12 -1.75813e-13 0)
(-2.77885e-12 -2.4037e-13 0)
(-2.72277e-12 -1.79474e-13 0)
(-2.61854e-12 -8.51156e-14 0)
(-2.35764e-12 5.80602e-14 0)
(-1.93374e-12 1.61124e-13 0)
(-1.79193e-12 1.2321e-13 0)
(-1.87958e-12 1.68129e-13 0)
(-2562.79 0.75209 0)
(-680.785 2.88058 0)
(305.717 -2.16637 0)
(212.376 -5.26859 0)
(113.719 -5.82713 0)
(-147.925 -3.48024 0)
(-260.563 -1.3946 0)
(-258.029 0.065453 0)
(-217.811 1.19826 0)
(-149.74 2.00762 0)
(-64.1631 3.00871 0)
(28.8592 3.77369 0)
(127.97 4.84029 0)
(227.455 5.55949 0)
(305.195 5.89607 0)
(336.798 5.42234 0)
(340.652 3.99441 0)
(337.257 2.22742 0)
(304.252 0.28762 0)
(116.27 -1.86511 0)
(-119.532 -3.88694 0)
(-143.005 -5.30359 0)
(-122.573 -6.18817 0)
(-76.9233 -6.6119 0)
(-24.1718 -6.60353 0)
(24.005 -6.27789 0)
(67.4881 -5.46263 0)
(108.677 -4.10935 0)
(149.565 -2.20652 0)
(195.175 0.550379 0)
(254.09 4.97949 0)
(310.959 12.4996 0)
(329.972 19.3368 0)
(314.529 23.4543 0)
(225.725 21.3209 0)
(35.9208 7.3339 0)
(-21.8327 0.50092 0)
(-17.0683 -0.770752 0)
(12.3978 -0.116943 0)
(51.6554 1.5543 0)
(86.783 2.86614 0)
(115.168 3.27184 0)
(138.15 2.87206 0)
(159.608 2.56153 0)
(185.21 3.44084 0)
(223.07 6.99685 0)
(258.615 12.9283 0)
(259.773 16.2192 0)
(219.854 15.4912 0)
(113.052 6.26807 0)
(45.5964 -2.82977 0)
(37.4172 -5.32995 0)
(55.0033 -5.72094 0)
(86.8393 -4.37624 0)
(116.578 -3.19516 0)
(138.217 -2.75859 0)
(157.224 -2.26784 0)
(182.081 -0.462611 0)
(202.524 3.04653 0)
(201.743 4.98547 0)
(166.827 4.564 0)
(105.296 -0.090262 0)
(67.7413 -4.06056 0)
(64.2955 -5.05461 0)
(82.4935 -4.50024 0)
(111.115 -2.45172 0)
(142.061 0.495409 0)
(168.402 3.971 0)
(174.445 6.35157 0)
(153.66 6.65806 0)
(115.566 4.86586 0)
(88.6515 1.27123 0)
(92.2908 -1.38408 0)
(119.7 -3.62758 0)
(143.918 -4.6362 0)
(136.817 -3.64308 0)
(116.167 -2.10648 0)
(102.873 -0.486542 0)
(107.695 0.388998 0)
(124.552 0.928167 0)
(131.98 0.873372 0)
(129.756 0.670872 0)
(126.976 0.335083 0)
(126.426 0.168763 0)
(126.905 0.0574533 0)
(126.773 -0.0210525 0)
(125.811 -0.125291 0)
(123.378 -0.255235 0)
(119.961 -0.240301 0)
(117.131 0.186864 0)
(116.293 0.924289 0)
(116.415 1.58572 0)
(117.504 2.28897 0)
(120.65 2.82418 0)
(126.396 2.83105 0)
(132.916 1.98253 0)
(136.613 0.241962 0)
(137.375 -1.5315 0)
(137.164 -2.99632 0)
(136.419 -4.08338 0)
(136.059 -4.51401 0)
(136.322 -4.35711 0)
(137.078 -3.74903 0)
(138.67 -2.91949 0)
(141.063 -2.02478 0)
(143.421 -1.25962 0)
(144.998 -0.695437 0)
(146.066 -0.27119 0)
(147.271 0.0997704 0)
(149.36 0.481922 0)
(153.43 0.899888 0)
(160.905 1.34236 0)
(171.675 1.76183 0)
(178.83 1.94805 0)
(179.15 1.88961 0)
(176.785 1.74129 0)
(165.427 1.39687 0)
(138.401 0.751719 0)
(112.192 0.162019 0)
(105.393 0.00841369 0)
(105.084 0.000202655 0)
(105.091 -0.000761047 0)
(105.159 -0.00100835 0)
(105.263 -0.000500009 0)
(105.356 -6.43114e-05 0)
(105.424 6.75702e-05 0)
(105.481 3.46684e-05 0)
(105.537 -2.29736e-05 0)
(105.6 -5.18533e-05 0)
(105.666 -5.28163e-05 0)
(105.733 -4.68052e-05 0)
(105.8 -4.39648e-05 0)
(105.867 -4.40405e-05 0)
(105.934 -4.31642e-05 0)
(106.002 -3.93655e-05 0)
(106.07 -3.36131e-05 0)
(106.139 -2.83318e-05 0)
(106.21 -2.46881e-05 0)
(106.28 -2.2374e-05 0)
(106.351 -2.14323e-05 0)
(106.423 -2.14036e-05 0)
(106.495 -2.09785e-05 0)
(106.569 -1.8033e-05 0)
(106.642 -1.00574e-05 0)
(106.717 4.51473e-06 0)
(106.792 2.54855e-05 0)
(106.869 5.14882e-05 0)
(106.945 8.03864e-05 0)
(107.023 0.000108673 0)
(107.102 0.000132465 0)
(107.182 0.00014874 0)
(107.262 0.000153543 0)
(107.343 0.000147216 0)
(107.425 0.000136218 0)
(107.508 0.000125017 0)
(107.591 0.000118593 0)
(107.675 0.000122834 0)
(107.761 0.000137074 0)
(107.847 0.000157842 0)
(107.933 0.000181994 0)
(108.021 0.000206459 0)
(108.11 0.00022831 0)
(108.2 0.000242819 0)
(108.291 0.000247982 0)
(108.383 0.000240241 0)
(108.476 0.000220345 0)
(108.57 0.000192514 0)
(108.665 0.000161991 0)
(108.761 0.000133784 0)
(108.859 0.00011101 0)
(108.957 9.25857e-05 0)
(109.057 7.43165e-05 0)
(109.158 5.11308e-05 0)
(109.26 2.03697e-05 0)
(109.363 -1.46954e-05 0)
(109.468 -4.54921e-05 0)
(109.573 -6.96295e-05 0)
(109.68 -8.38071e-05 0)
(109.788 -8.77356e-05 0)
(109.897 -8.84624e-05 0)
(110.007 -9.6428e-05 0)
(110.119 -0.000116223 0)
(110.233 -0.000146988 0)
(110.349 -0.000181948 0)
(110.465 -0.000209781 0)
(110.583 -0.000215795 0)
(110.703 -0.000192134 0)
(110.824 -0.000136847 0)
(110.947 -6.27757e-05 0)
(111.071 1.15986e-05 0)
(111.198 6.40292e-05 0)
(111.326 7.36633e-05 0)
(111.456 4.8793e-05 0)
(111.588 -1.22118e-05 0)
(111.721 -9.31033e-05 0)
(111.856 -0.000174726 0)
(111.993 -0.000240529 0)
(112.132 -0.000277075 0)
(112.274 -0.000277896 0)
(112.417 -0.000260971 0)
(112.562 -0.000231297 0)
(112.709 -0.000188772 0)
(112.858 -0.000141154 0)
(113.009 -9.33084e-05 0)
(113.163 -4.38056e-05 0)
(113.32 1.58326e-05 0)
(113.479 9.69068e-05 0)
(113.641 0.00020242 0)
(113.804 0.000325339 0)
(113.97 0.000446712 0)
(114.139 0.000533311 0)
(114.31 0.000563222 0)
(114.485 0.000481073 0)
(114.664 0.000259279 0)
(114.845 -8.48036e-05 0)
(115.028 -0.000503735 0)
(115.214 -0.00092652 0)
(115.401 -0.00126776 0)
(115.592 -0.00144641 0)
(115.787 -0.00140224 0)
(115.985 -0.00108027 0)
(116.187 -0.000536306 0)
(116.393 8.84506e-05 0)
(116.602 0.000682166 0)
(116.815 0.00120667 0)
(117.031 0.00162974 0)
(117.252 0.0019268 0)
(117.477 0.00204992 0)
(117.706 0.00192086 0)
(117.94 0.00151686 0)
(118.179 0.000879924 0)
(118.421 0.000149341 0)
(118.666 -0.000525725 0)
(118.915 -0.00103209 0)
(119.169 -0.00131222 0)
(119.428 -0.00137478 0)
(119.693 -0.00125598 0)
(119.963 -0.0009529 0)
(120.239 -0.00055207 0)
(120.519 -0.000177512 0)
(120.804 9.63177e-05 0)
(121.094 0.000254706 0)
(121.39 0.000332969 0)
(121.691 0.000361761 0)
(122 0.000362905 0)
(122.315 0.000336841 0)
(122.638 0.000310999 0)
(122.966 0.000272392 0)
(123.301 0.00021766 0)
(123.641 0.00014981 0)
(123.989 8.47914e-05 0)
(124.344 2.02453e-05 0)
(124.707 -4.34958e-05 0)
(125.078 -0.000102664 0)
(125.457 -0.000160093 0)
(125.844 -0.000208351 0)
(126.237 -0.000240606 0)
(126.639 -0.000256317 0)
(127.047 -0.000262925 0)
(127.465 -0.000246031 0)
(127.892 -0.000181387 0)
(128.329 -7.63301e-05 0)
(128.775 3.78201e-05 0)
(129.231 0.000142915 0)
(129.696 0.000231445 0)
(130.172 0.000298257 0)
(130.656 0.000334653 0)
(131.137 0.00032954 0)
(131.608 0.000273637 0)
(132.121 0.000180156 0)
(132.829 7.23919e-05 0)
(133.721 -3.03266e-05 0)
(134.042 -9.86918e-05 0)
(133.89 -0.000132055 0)
(132.401 -0.000161517 0)
(124.114 -0.000166369 0)
(92.1091 -0.000122243 0)
(32.3586 -4.18516e-05 0)
(2.46429 -3.10005e-06 0)
(0.0228448 -2.78662e-08 0)
(1.62133e-05 -1.88987e-11 0)
(6.31018e-10 1.30712e-13 0)
(-2.12154e-12 1.18527e-13 0)
(-2.3541e-12 1.95639e-13 0)
(-2.20538e-12 1.29029e-13 0)
(-2.34166e-12 9.14297e-14 0)
(-2.49376e-12 -6.0425e-14 0)
(-2.49688e-12 5.54454e-15 0)
(-2.50452e-12 3.37077e-15 0)
(-2.50329e-12 -5.15207e-14 0)
(-2.58762e-12 -1.0041e-13 0)
(-2.57465e-12 -1.51037e-13 0)
(-2.82357e-12 -1.42636e-13 0)
(-2.83676e-12 -1.64841e-13 0)
(-2.5978e-12 -1.23598e-13 0)
(-2.41269e-12 -1.15033e-13 0)
(-2.24361e-12 3.48692e-14 0)
(-1.96847e-12 8.00534e-15 0)
(-1.68749e-12 7.07459e-15 0)
(-1.60979e-12 8.87783e-14 0)
(-2563.85 0.545048 0)
(-681.791 2.59353 0)
(305.382 -0.691503 0)
(212.561 -2.16357 0)
(115.814 -1.81899 0)
(-144.176 0.11591 0)
(-259.063 1.19095 0)
(-257.158 1.83031 0)
(-216.982 2.24356 0)
(-149.124 2.66638 0)
(-63.5523 3.73664 0)
(29.6437 4.74509 0)
(128.886 6.18659 0)
(228.092 7.16841 0)
(305.113 8.31681 0)
(334.509 8.15883 0)
(337.945 7.07664 0)
(333.51 5.88928 0)
(299.244 4.35428 0)
(109.459 1.02407 0)
(-123.423 -3.5936 0)
(-146.437 -6.18219 0)
(-125.349 -7.70738 0)
(-79.9335 -8.48624 0)
(-28.1266 -8.71521 0)
(19.1344 -8.52492 0)
(62.0967 -7.69564 0)
(103.039 -5.97967 0)
(143.924 -3.12963 0)
(190.116 1.20953 0)
(251.1 7.55775 0)
(308.515 16.7487 0)
(325.088 25.4598 0)
(306.312 31.2546 0)
(197.13 26.7605 0)
(8.16088 8.06885 0)
(-31.889 0.399959 0)
(-22.5542 -1.66657 0)
(10.4489 -1.08442 0)
(50.1641 0.691978 0)
(84.0377 2.02264 0)
(110.974 2.47219 0)
(133.31 2.49485 0)
(156.076 3.16324 0)
(184.919 5.97002 0)
(226.427 12.0012 0)
(262.614 19.6717 0)
(257.136 23.5672 0)
(206.527 20.6566 0)
(90.005 6.42843 0)
(36.2187 -4.40347 0)
(33.7445 -7.34034 0)
(55.3664 -7.67133 0)
(88.1105 -6.02925 0)
(116.469 -4.843 0)
(137.409 -4.2874 0)
(157.721 -3.03513 0)
(185.54 -0.044243 0)
(206.966 4.70915 0)
(201.667 7.22262 0)
(161.023 5.97176 0)
(96.7148 -0.52885 0)
(62.6544 -5.32592 0)
(63.5854 -6.51341 0)
(84.3618 -5.65889 0)
(114.365 -3.07131 0)
(146.684 0.800972 0)
(173.108 5.5368 0)
(177.263 8.37381 0)
(153.093 8.29051 0)
(111.442 4.7929 0)
(84.3865 0.147974 0)
(89.8749 -2.86386 0)
(119.165 -4.61673 0)
(145.727 -5.09449 0)
(140.455 -4.01531 0)
(119.743 -2.5947 0)
(105.519 -0.723748 0)
(109.432 0.410188 0)
(125.249 1.2103 0)
(131.794 1.2622 0)
(129.239 0.995896 0)
(126.466 0.46275 0)
(126.095 0.172731 0)
(126.728 -0.0786495 0)
(126.576 -0.253745 0)
(125.53 -0.447647 0)
(123.113 -0.615675 0)
(120.146 -0.474671 0)
(117.909 0.15335 0)
(117.256 1.09893 0)
(117.436 1.99291 0)
(118.522 2.86424 0)
(121.307 3.60376 0)
(126.039 3.8739 0)
(130.88 3.08245 0)
(133.403 0.984347 0)
(134.191 -1.43496 0)
(134.544 -3.6223 0)
(135.008 -5.08643 0)
(135.696 -5.68314 0)
(136.665 -5.77142 0)
(138.109 -5.29175 0)
(140.128 -4.36782 0)
(142.501 -3.25443 0)
(144.548 -2.23042 0)
(145.885 -1.39976 0)
(146.871 -0.704308 0)
(148.064 -0.0578101 0)
(150.154 0.593605 0)
(154.215 1.25483 0)
(161.654 1.89491 0)
(172.191 2.45032 0)
(178.787 2.66161 0)
(178.948 2.58867 0)
(176.382 2.39031 0)
(164.484 1.8949 0)
(137.035 0.988022 0)
(111.567 0.201996 0)
(105.344 0.00986738 0)
(105.081 0.000207797 0)
(105.089 -0.00104951 0)
(105.16 -0.00133246 0)
(105.264 -0.000640412 0)
(105.356 -6.63383e-05 0)
(105.424 8.81105e-05 0)
(105.48 2.9729e-05 0)
(105.537 -4.63259e-05 0)
(105.6 -7.48492e-05 0)
(105.666 -7.08844e-05 0)
(105.733 -6.02426e-05 0)
(105.8 -5.48621e-05 0)
(105.867 -5.29245e-05 0)
(105.934 -5.01594e-05 0)
(106.001 -4.577e-05 0)
(106.07 -4.09182e-05 0)
(106.139 -3.68806e-05 0)
(106.209 -3.36025e-05 0)
(106.28 -3.04946e-05 0)
(106.351 -2.73701e-05 0)
(106.423 -2.29844e-05 0)
(106.495 -1.51739e-05 0)
(106.569 -1.78012e-06 0)
(106.642 1.84816e-05 0)
(106.717 4.55017e-05 0)
(106.792 7.8717e-05 0)
(106.869 0.000115802 0)
(106.945 0.000152766 0)
(107.023 0.000185469 0)
(107.102 0.00020971 0)
(107.181 0.000222735 0)
(107.262 0.00022425 0)
(107.343 0.000219271 0)
(107.425 0.000210012 0)
(107.508 0.000202817 0)
(107.591 0.000204328 0)
(107.675 0.000214964 0)
(107.76 0.000233445 0)
(107.847 0.000255971 0)
(107.933 0.000278689 0)
(108.021 0.000297581 0)
(108.11 0.000308977 0)
(108.2 0.000315089 0)
(108.291 0.000313383 0)
(108.383 0.000304198 0)
(108.476 0.00028901 0)
(108.57 0.00026984 0)
(108.665 0.000247072 0)
(108.761 0.000220795 0)
(108.858 0.000191872 0)
(108.957 0.000160288 0)
(109.057 0.000124494 0)
(109.158 8.55708e-05 0)
(109.26 4.68587e-05 0)
(109.363 1.14367e-05 0)
(109.467 -1.9023e-05 0)
(109.573 -4.22571e-05 0)
(109.68 -5.82454e-05 0)
(109.787 -7.08505e-05 0)
(109.897 -8.62766e-05 0)
(110.007 -0.000111307 0)
(110.119 -0.000149488 0)
(110.233 -0.000197166 0)
(110.348 -0.000243223 0)
(110.465 -0.000274071 0)
(110.583 -0.000277433 0)
(110.703 -0.00024139 0)
(110.824 -0.000174172 0)
(110.947 -9.2629e-05 0)
(111.072 -1.98667e-05 0)
(111.198 2.7487e-05 0)
(111.326 3.68485e-05 0)
(111.456 -7.91446e-06 0)
(111.588 -9.1025e-05 0)
(111.721 -0.000191364 0)
(111.856 -0.000284689 0)
(111.993 -0.000349424 0)
(112.132 -0.000372228 0)
(112.274 -0.000364399 0)
(112.417 -0.000317907 0)
(112.562 -0.000245148 0)
(112.709 -0.000167524 0)
(112.858 -9.74438e-05 0)
(113.009 -3.54272e-05 0)
(113.163 2.71993e-05 0)
(113.32 0.000100999 0)
(113.479 0.000192816 0)
(113.641 0.000301059 0)
(113.804 0.000413855 0)
(113.97 0.000514728 0)
(114.139 0.00058929 0)
(114.31 0.000603454 0)
(114.485 0.000511239 0)
(114.663 0.000281634 0)
(114.844 -7.5533e-05 0)
(115.027 -0.000520393 0)
(115.213 -0.000978201 0)
(115.401 -0.00134904 0)
(115.592 -0.001554 0)
(115.787 -0.00156752 0)
(115.985 -0.00135815 0)
(116.188 -0.000927429 0)
(116.394 -0.000302983 0)
(116.603 0.000445691 0)
(116.816 0.00121241 0)
(117.032 0.00187923 0)
(117.252 0.0023389 0)
(117.477 0.00251856 0)
(117.706 0.00237929 0)
(117.94 0.00190521 0)
(118.178 0.00119313 0)
(118.42 0.000360498 0)
(118.665 -0.000446845 0)
(118.914 -0.00109336 0)
(119.169 -0.00150094 0)
(119.428 -0.00165187 0)
(119.693 -0.00155119 0)
(119.964 -0.00127225 0)
(120.239 -0.000878789 0)
(120.52 -0.000452663 0)
(120.805 -6.446e-05 0)
(121.095 0.000229902 0)
(121.39 0.000408474 0)
(121.692 0.000482302 0)
(122 0.000476366 0)
(122.315 0.000432053 0)
(122.637 0.00034833 0)
(122.966 0.000254209 0)
(123.301 0.000177055 0)
(123.641 0.000122578 0)
(123.989 8.7425e-05 0)
(124.344 5.28864e-05 0)
(124.707 9.86628e-07 0)
(125.078 -6.37726e-05 0)
(125.457 -0.000138763 0)
(125.843 -0.000212618 0)
(126.237 -0.000281677 0)
(126.638 -0.00034358 0)
(127.047 -0.000382773 0)
(127.465 -0.000373481 0)
(127.892 -0.000310807 0)
(128.329 -0.000198441 0)
(128.775 -4.90971e-05 0)
(129.231 0.000115921 0)
(129.696 0.000267029 0)
(130.172 0.000380972 0)
(130.656 0.000442256 0)
(131.137 0.000440483 0)
(131.607 0.00036866 0)
(132.121 0.000257226 0)
(132.829 0.000117918 0)
(133.721 -2.9787e-05 0)
(134.042 -0.000119169 0)
(133.89 -0.000162852 0)
(132.401 -0.000204768 0)
(124.114 -0.000213073 0)
(92.1093 -0.000159202 0)
(32.3587 -5.47631e-05 0)
(2.46431 -4.03339e-06 0)
(0.022845 -3.58975e-08 0)
(1.62135e-05 -2.42289e-11 0)
(6.31229e-10 3.08101e-13 0)
(-1.8663e-12 4.27962e-13 0)
(-2.28039e-12 3.42565e-13 0)
(-2.44173e-12 2.16754e-13 0)
(-2.61046e-12 1.20531e-13 0)
(-2.54658e-12 7.19375e-14 0)
(-2.47153e-12 1.063e-14 0)
(-2.59919e-12 2.01846e-14 0)
(-2.55615e-12 -9.31032e-14 0)
(-2.64883e-12 -1.25548e-13 0)
(-2.70271e-12 -1.2065e-13 0)
(-2.71591e-12 -8.36623e-14 0)
(-2.69632e-12 -5.04153e-14 0)
(-2.6623e-12 -1.04536e-13 0)
(-2.4813e-12 -1.2315e-13 0)
(-2.21445e-12 -1.21616e-13 0)
(-1.98932e-12 -1.52753e-13 0)
(-1.57402e-12 -1.31599e-13 0)
(-1.43325e-12 -3.51504e-14 0)
(-2564.44 1.3091 0)
(-682.319 2.58135 0)
(305.137 2.50498 0)
(212.839 2.67906 0)
(117.953 2.80397 0)
(-141.887 3.59374 0)
(-258.931 3.52436 0)
(-257.252 3.05525 0)
(-216.756 2.93613 0)
(-148.563 3.05081 0)
(-62.5793 4.0694 0)
(31.0633 5.12004 0)
(130.565 6.96841 0)
(229.848 8.57999 0)
(305.533 11.2528 0)
(332.166 11.871 0)
(335.041 11.1791 0)
(329.951 10.4996 0)
(293.355 9.00748 0)
(98.6223 3.98717 0)
(-128.68 -2.90168 0)
(-150.426 -5.91342 0)
(-128.227 -7.57886 0)
(-82.967 -8.50263 0)
(-32.1507 -8.8223 0)
(14.1811 -8.59992 0)
(56.6473 -7.63186 0)
(97.5667 -5.61667 0)
(138.898 -2.28002 0)
(186.188 2.47345 0)
(249.593 9.42936 0)
(306.888 19.7102 0)
(320.708 28.7458 0)
(295.722 34.2138 0)
(159.262 25.4433 0)
(-18.9874 4.94093 0)
(-42.8543 -0.794596 0)
(-28.1111 -2.3113 0)
(8.2612 -0.838768 0)
(47.306 1.34733 0)
(79.3092 2.47332 0)
(104.87 2.46769 0)
(127.275 2.31117 0)
(152.482 3.19241 0)
(187.487 7.21605 0)
(233.413 15.8989 0)
(267.76 25.5448 0)
(253.432 29.6744 0)
(185.59 23.2562 0)
(63.41 4.23038 0)
(25.787 -5.87225 0)
(29.8506 -8.84713 0)
(56.2376 -8.60029 0)
(89.1213 -6.7806 0)
(115.502 -5.97415 0)
(136.012 -5.6073 0)
(158.906 -4.15048 0)
(190.633 0.119456 0)
(213.35 6.12265 0)
(201.733 9.37964 0)
(152.889 7.17439 0)