/*--------------------------------*- C++ -*----------------------------------*\
| =========                 |                                                 |
| \\      /  F ield         | OpenFOAM: The Open Source CFD Toolbox           |
|  \\    /   O peration     | Version:  2306                                  |
|   \\  /    A nd           | Website:  www.openfoam.com                      |
|    \\/     M anipulation  |                                                 |
\*---------------------------------------------------------------------------*/
FoamFile
{
    version     2.0;
    format      ascii;
    arch        "LSB;label=32;scalar=64";
    class       volScalarField;
    location    "0.18";
    object      rho;
}
// * * * * * * * * * * * * * * * * * * * * * * * * * * * * * * * * * * * * * //

dimensions      [1 -3 0 0 0 0 0];

internalField   nonuniform List<scalar> 
6000
(
54.0377
1.54519
0.183281
0.1689
0.160691
0.159349
0.165049
0.176883
0.191665
0.210255
0.23502
0.269209
0.301448
0.315913
0.314681
0.3066
0.301279
0.30835
0.302675
0.235848
0.183956
0.176919
0.17905
0.182585
0.185459
0.188095
0.191443
0.196488
0.203695
0.212997
0.222874
0.231471
0.238388
0.244587
0.251729
0.261778
0.274025
0.281601
0.280126
0.270865
0.241426
0.186767
0.169852
0.172007
0.178405
0.186229
0.192114
0.195245
0.197102
0.199002
0.201465
0.204601
0.208069
0.211613
0.214964
0.218034
0.221002
0.224092
0.228135
0.233748
0.240028
0.241716
0.238526
0.227846
0.199073
0.183939
0.184276
0.188833
0.192349
0.194279
0.194538
0.193812
0.192795
0.192325
0.194448
0.199447
0.205977
0.211764
0.213806
0.213318
0.21161
0.210418
0.211166
0.21534
0.221586
0.224628
0.221953
0.208933
0.185594
0.175895
0.173843
0.17619
0.18156
0.186547
0.190287
0.191709
0.192049
0.192642
0.194321
0.197038
0.199948
0.201837
0.202589
0.20243
0.202134
0.202625
0.205117
0.210224
0.213208
0.21492
0.209211
0.193098
0.182814
0.181865
0.183673
0.187574
0.191073
0.192355
0.19206
0.190969
0.189671
0.188569
0.188077
0.188724
0.190948
0.194501
0.197873
0.20049
0.201864
0.203205
0.204684
0.205404
0.204629
0.20214
0.192045
0.181493
0.179065
0.179756
0.180331
0.181366
0.181588
0.18073
0.179297
0.178004
0.177468
0.178091
0.180101
0.183887
0.18861
0.192454
0.195394
0.197386
0.198579
0.199529
0.200273
0.199893
0.197504
0.192293
0.180445
0.17089
0.169564
0.17024
0.172269
0.1755
0.178177
0.179589
0.180345
0.18059
0.180504
0.180528
0.181199
0.182885
0.185009
0.186364
0.18699
0.187127
0.187014
0.187076
0.187455
0.187442
0.186446
0.184081
0.177151
0.168515
0.165893
0.164841
0.164682
0.165765
0.167375
0.168432
0.16906
0.170267
0.171802
0.173353
0.174858
0.175876
0.176572
0.177148
0.177527
0.177703
0.178066
0.178991
0.180762
0.18304
0.184287
0.18467
0.18293
0.176586
0.168684
0.166527
0.165868
0.166196
0.166841
0.166667
0.165425
0.1638
0.162196
0.160992
0.160436
0.160605
0.161532
0.163198
0.165351
0.167524
0.169406
0.170854
0.171922
0.172398
0.172101
0.171132
0.168676
0.162363
0.155399
0.153218
0.152539
0.152779
0.153909
0.155607
0.156678
0.157516
0.158164
0.158655
0.159266
0.159873
0.16052
0.161472
0.163079
0.165236
0.166963
0.167815
0.168327
0.168802
0.169142
0.169175
0.169149
0.168272
0.164855
0.157663
0.151733
0.150125
0.149168
0.148819
0.149353
0.150458
0.151295
0.151591
0.151794
0.152136
0.152433
0.152959
0.153732
0.15475
0.155712
0.156176
0.156155
0.155971
0.15569
0.155451
0.155232
0.154873
0.153994
0.152313
0.148543
0.143007
0.140041
0.13928
0.138973
0.139445
0.140354
0.140642
0.140395
0.139859
0.139072
0.138447
0.138108
0.137782
0.137579
0.137755
0.138601
0.141242
53.999
1.61238
0.183237
0.169051
0.160901
0.159516
0.165187
0.177013
0.192022
0.210794
0.235386
0.268315
0.299513
0.313579
0.312554
0.306093
0.301578
0.308278
0.303238
0.239269
0.184156
0.177183
0.178954
0.182514
0.185402
0.188026
0.191537
0.196965
0.204598
0.213866
0.222875
0.230016
0.235968
0.241967
0.249353
0.259389
0.271239
0.279635
0.27889
0.270411
0.244231
0.19013
0.171131
0.173199
0.179428
0.186971
0.192321
0.194967
0.196645
0.198611
0.201281
0.204582
0.208163
0.21156
0.214577
0.217369
0.220104
0.223166
0.22748
0.23369
0.241339
0.244267
0.24077
0.22974
0.199754
0.183753
0.183989
0.188423
0.19185
0.193644
0.193777
0.193072
0.192282
0.192194
0.194534
0.199612
0.205876
0.211206
0.213131
0.212816
0.211416
0.210575
0.211848
0.216371
0.222824
0.225788
0.222997
0.210004
0.186501
0.176451
0.174542
0.177117
0.1826
0.187677
0.191196
0.192114
0.192224
0.192664
0.194277
0.19702
0.200015
0.202148
0.203131
0.203307
0.203299
0.204051
0.206582
0.211427
0.213869
0.214893
0.208999
0.192693
0.182431
0.1817
0.183268
0.186772
0.19
0.191193
0.190962
0.189989
0.188905
0.188255
0.188396
0.189647
0.192179
0.195497
0.198299
0.200201
0.201182
0.202454
0.204262
0.205013
0.204745
0.202236
0.191942
0.180954
0.178627
0.179008
0.179721
0.181135
0.181729
0.181052
0.179851
0.178814
0.178463
0.179193
0.181227
0.184801
0.18919
0.192481
0.194614
0.196118
0.197129
0.198324
0.199391
0.1992
0.196905
0.191979
0.180692
0.17122
0.169889
0.170606
0.172555
0.175527
0.177894
0.178939
0.179512
0.179877
0.179997
0.180286
0.181181
0.183007
0.185191
0.186624
0.187096
0.187294
0.187407
0.187804
0.188327
0.188017
0.186882
0.184308
0.177218
0.168588
0.166048
0.165189
0.165225
0.166495
0.168206
0.16922
0.169846
0.170724
0.171686
0.172893
0.174078
0.175005
0.175899
0.176828
0.177494
0.177837
0.178258
0.179168
0.180963
0.183104
0.184002
0.184029
0.182031
0.175448
0.167664
0.165602
0.165056
0.165548
0.166534
0.16674
0.165895
0.164583
0.163288
0.16233
0.16194
0.162245
0.163193
0.164796
0.166846
0.168827
0.170384
0.171535
0.172433
0.172879
0.172588
0.171635
0.169222
0.163002
0.156127
0.154074
0.153518
0.153877
0.155179
0.157005
0.15805
0.158631
0.158892
0.159034
0.15936
0.159822
0.160451
0.161447
0.16314
0.165341
0.166944
0.167575
0.167828
0.168044
0.168296
0.168334
0.168228
0.167597
0.164845
0.158387
0.151977
0.150014
0.149231
0.149048
0.149678
0.150934
0.15186
0.152097
0.152207
0.1524
0.152587
0.152974
0.153606
0.154526
0.15553
0.156122
0.156167
0.155982
0.155691
0.155448
0.15519
0.15472
0.15381
0.152111
0.148358
0.142988
0.140272
0.139716
0.139611
0.140231
0.141258
0.141631
0.141327
0.140738
0.139864
0.139168
0.138775
0.138467
0.138296
0.138487
0.139328
0.141927
54.0847
1.54149
0.181748
0.168945
0.161368
0.160047
0.165727
0.177779
0.193173
0.212226
0.236273
0.266774
0.295937
0.309597
0.309455
0.305763
0.30264
0.306891
0.302196
0.244952
0.185266
0.178317
0.179078
0.182449
0.185411
0.188231
0.192369
0.198562
0.206703
0.215258
0.22223
0.227261
0.232165
0.238232
0.246255
0.256094
0.267057
0.276062
0.276506
0.269379
0.248324
0.196431
0.173574
0.175242
0.181033
0.187758
0.192134
0.194311
0.196017
0.198293
0.201351
0.204818
0.208212
0.211202
0.213804
0.216147
0.218522
0.221628
0.226387
0.233287
0.242353
0.247254
0.243503
0.23276
0.201413
0.183585
0.183523
0.187648
0.190884
0.192577
0.192689
0.19215
0.191754
0.192308
0.194896
0.1997
0.205267
0.209942
0.211944
0.212021
0.211104
0.210624
0.212444
0.217525
0.224323
0.227008
0.223803
0.211119
0.187479
0.177115
0.175734
0.178726
0.184317
0.189256
0.192078
0.192414
0.192283
0.192688
0.194256
0.197039
0.200234
0.202765
0.204132
0.2046
0.204762
0.205464
0.207991
0.212618
0.214451
0.21472
0.20862
0.192013
0.181993
0.181476
0.182708
0.185571
0.188323
0.189389
0.189272
0.188625
0.188063
0.188019
0.188923
0.190992
0.193882
0.196821
0.198869
0.199913
0.200437
0.201611
0.20401
0.204961
0.205016
0.202222
0.191829
0.180052
0.177723
0.17789
0.178846
0.180705
0.181863
0.181613
0.180803
0.18022
0.180249
0.181171
0.183267
0.186416
0.189859
0.192101
0.193387
0.194537
0.195518
0.196941
0.198205
0.198033
0.195858
0.191354
0.181028
0.171814
0.170482
0.171178
0.172826
0.175332
0.177215
0.177937
0.178375
0.178925
0.179435
0.180124
0.181261
0.18306
0.185118
0.186332
0.186759
0.187061
0.187574
0.188466
0.189416
0.189256
0.18788
0.184918
0.177433
0.168731
0.16636
0.165936
0.166261
0.167779
0.169713
0.17058
0.170872
0.171051
0.171429
0.171892
0.172701
0.173777
0.175115
0.176569
0.177664
0.178251
0.178699
0.179569
0.181264
0.183087
0.18369
0.183301
0.180916
0.17385
0.166176
0.164301
0.163913
0.16457
0.166024
0.166824
0.166485
0.165602
0.16473
0.164183
0.164105
0.164653
0.165649
0.16717
0.16908
0.170831
0.172014
0.172813
0.173435
0.173709
0.173287
0.172232
0.169832
0.163844
0.15712
0.155203
0.154855
0.155278
0.156709
0.158591
0.159438
0.159562
0.159391
0.159263
0.159281
0.159597
0.160224
0.161314
0.163203
0.165643
0.167099
0.167232
0.16706
0.166855
0.166841
0.166934
0.166704
0.166297
0.164459
0.159246
0.152639
0.150176
0.149503
0.149419
0.150183
0.15161
0.152651
0.152809
0.152821
0.152824
0.152805
0.152965
0.153361
0.154084
0.155067
0.155873
0.156105
0.155971
0.155721
0.155494
0.155211
0.15465
0.153709
0.151956
0.148169
0.143041
0.140687
0.140305
0.140327
0.141016
0.142132
0.142615
0.14233
0.14177
0.140936
0.140201
0.139818
0.139596
0.139513
0.139764
0.140644
0.143213
54.0241
1.60013
0.179826
0.169135
0.162396
0.160851
0.166795
0.179147
0.194931
0.214162
0.237364
0.264878
0.291483
0.305127
0.30625
0.305152
0.304296
0.306162
0.300646
0.250906
0.186355
0.178522
0.178499
0.181872
0.184986
0.188391
0.193412
0.200521
0.208986
0.21616
0.220652
0.223645
0.227322
0.233289
0.241723
0.251799
0.262357
0.271774
0.275055
0.269222
0.253068
0.204522
0.176932
0.177722
0.182863
0.188367
0.191692
0.193383
0.195152
0.197886
0.20151
0.205226
0.208417
0.210823
0.212749
0.214557
0.216672
0.219872
0.225125
0.232832
0.242969
0.249797
0.246391
0.236118
0.204374
0.183759
0.18319
0.186792
0.18973
0.191263
0.19133
0.191013
0.19108
0.19223
0.195035
0.19932
0.204011
0.207966
0.210131
0.210719
0.210511
0.21072
0.213289
0.218975
0.22593
0.228374
0.224801
0.212719
0.189208
0.178476
0.177803
0.181228
0.186824
0.19116
0.19287
0.192906
0.192576
0.192829
0.194374
0.197282
0.200758
0.203908
0.20578
0.206372
0.206334
0.206896
0.20945
0.21378
0.215024
0.21463
0.208115
0.191145
0.181474
0.181051
0.182193
0.184522
0.186857
0.187747
0.187592
0.187228
0.187206
0.187962
0.18983
0.192707
0.195834
0.198101
0.199092
0.199287
0.199539
0.200866
0.20372
0.205074
0.205484
0.202429
0.191981
0.179496
0.176666
0.176538
0.177714
0.180027
0.181841
0.182217
0.182025
0.181967
0.182466
0.183671
0.185677
0.188171
0.190385
0.191415
0.191854
0.192495
0.193446
0.194918
0.196502
0.19662
0.194763
0.19095
0.181718
0.172739
0.17128
0.171791
0.172955
0.175036
0.176583
0.177072
0.177448
0.178069
0.179072
0.180172
0.181549
0.183429
0.185345
0.186214
0.186314
0.186498
0.187229
0.188419
0.18981
0.190104
0.188837
0.185888
0.178179
0.16913
0.166762
0.166789
0.167455
0.16938
0.171533
0.172183
0.171959
0.171502
0.171086
0.171016
0.171525
0.172641
0.174363
0.176366
0.177878
0.178644
0.179127
0.179946
0.181463
0.182977
0.183263
0.182473
0.179675
0.17219
0.1647
0.163021
0.16282
0.163679
0.165618
0.167038
0.167194
0.166964
0.166726
0.166755
0.167203
0.168016
0.16907
0.170374
0.171888
0.173131
0.173826
0.174305
0.174756
0.174932
0.174417
0.173345
0.171023
0.165314
0.158733
0.156909
0.15673
0.157146
0.158567
0.160339
0.160918
0.160702
0.160149
0.159642
0.159405
0.159521
0.160018
0.161097
0.163089
0.165621
0.16675
0.166609
0.166063
0.165476
0.165256
0.16548
0.165511
0.165174
0.16386
0.159711
0.153259
0.150364
0.149887
0.150007
0.150972
0.15255
0.153543
0.153593
0.153394
0.153085
0.152839
0.152759
0.152897
0.15341
0.154385
0.155421
0.155941
0.155939
0.155766
0.155557
0.155251
0.154653
0.153717
0.151952
0.14818
0.143261
0.141219
0.141033
0.141142
0.14194
0.143207
0.143784
0.143579
0.143046
0.14235
0.141662
0.141332
0.141191
0.141168
0.14147
0.142381
0.144914
54.1741
1.43423
0.178703
0.170007
0.163983
0.161573
0.168013
0.180556
0.196676
0.21603
0.238351
0.262926
0.286687
0.30077
0.303888
0.304259
0.305261
0.30542
0.298619
0.255662
0.187944
0.177047
0.176635
0.179789
0.183483
0.187759
0.194277
0.202598
0.210958
0.216202
0.218599
0.220238
0.222901
0.228642
0.237509
0.24811
0.258321
0.267701
0.273838
0.269312
0.257246
0.213442
0.180672
0.180111
0.184418
0.188792
0.191298
0.192422
0.19412
0.197375
0.20168
0.205802
0.208838
0.210704
0.211894
0.213007
0.21466
0.217817
0.223336
0.231756
0.242758
0.25117
0.248814
0.239112
0.207921
0.18426
0.183014
0.18602
0.18872
0.190115
0.190167
0.19005
0.190618
0.192248
0.195036
0.19862
0.202328
0.205534
0.20772
0.208823
0.209348
0.210583
0.214225
0.220584
0.227706
0.229826
0.225904
0.214545
0.191381
0.180387
0.18065
0.184409
0.189445
0.192634
0.193416
0.193198
0.19281
0.193041
0.194674
0.197941
0.201974
0.205608
0.207567
0.207868
0.207535
0.207775
0.21023
0.2144
0.215479
0.214548
0.207643
0.190463
0.181007
0.180657
0.181755
0.183667
0.185587
0.186307
0.18617
0.186027
0.18656
0.188167
0.190968
0.194413
0.197446
0.198873
0.198904
0.198527
0.198504
0.200005
0.203102
0.205186
0.2062
0.203052
0.192603
0.179651
0.175887
0.175204
0.176495
0.179064
0.181374
0.182454
0.182986
0.183533
0.184562
0.186002
0.187752
0.189564
0.190523
0.190543
0.190287
0.190471
0.191215
0.192595
0.194662
0.195294
0.193975
0.190953
0.182697
0.173915
0.172209
0.172406
0.173125
0.174863
0.176126
0.17636
0.17665
0.177561
0.178827
0.180302
0.181711
0.183558
0.18529
0.185929
0.1859
0.185884
0.186468
0.187753
0.189423
0.19021
0.189282
0.186709
0.179293
0.169854
0.167396
0.167821
0.169128
0.17131
0.173359
0.173682
0.173025
0.171899
0.170971
0.170585
0.170855
0.171914
0.173835
0.176174
0.17798
0.178904
0.179423
0.180168
0.181491
0.182716
0.182707
0.181677
0.178636
0.171088
0.16377
0.162181
0.162108
0.163069
0.165266
0.167287
0.168037
0.16837
0.168665
0.169138
0.169834
0.170725
0.171703
0.172822
0.173898
0.174514
0.174744
0.174946
0.175302
0.175572
0.175229
0.174423
0.172416
0.167213
0.160766
0.158847
0.158693
0.159047
0.160377
0.161785
0.161918
0.161403
0.160607
0.159882
0.159487
0.159418
0.159831
0.160826
0.162741
0.165098
0.1659
0.165674
0.164891
0.164023
0.163548
0.163821
0.164266
0.164006
0.163178
0.159823
0.153787
0.150656
0.150384
0.150675
0.151819
0.153508
0.154254
0.154157
0.153716
0.153141
0.152651
0.152351
0.152272
0.152605
0.153551
0.154845
0.155759
0.15595
0.155842
0.155658
0.155363
0.154775
0.15388
0.152132
0.14832
0.14349
0.141719
0.141677
0.141852
0.142775
0.144176
0.144786
0.144699
0.144209
0.143629
0.142972
0.142726
0.142723
0.142829
0.143274
0.144266
0.146818
54.1704
1.43561
0.179305
0.171672
0.165533
0.161976
0.168772
0.181459
0.198019
0.217567
0.238959
0.260973
0.282133
0.296924
0.301352
0.304039
0.305466
0.304634
0.296222
0.258802
0.189123
0.173653
0.173566
0.177203
0.182003
0.187849
0.195637
0.20457
0.211982
0.215401
0.21647
0.217253
0.219505
0.225338
0.234772
0.245936
0.255878
0.264927
0.272747
0.269899
0.260549
0.221662
0.184576
0.182
0.18528
0.188963
0.190927
0.191597
0.193136
0.196737
0.201836
0.206621
0.209619
0.211006
0.21166
0.212229
0.213339
0.216005
0.221182
0.229779
0.241517
0.251226
0.25029
0.241593
0.211492
0.185008
0.183022
0.18538
0.187971
0.189357
0.189498
0.189641
0.190533
0.192386
0.194929
0.197765
0.200591
0.203127
0.205166
0.206645
0.207972
0.210235
0.214939
0.221882
0.229249
0.231287
0.22717
0.21655
0.19378
0.183086
0.183965
0.187452
0.191234
0.193338
0.193694
0.193271
0.192866
0.193272
0.195302
0.199097
0.203629
0.207276
0.208779
0.208784
0.208211
0.208283
0.210626
0.214604
0.215569
0.214422
0.207334
0.190166
0.180435
0.179993
0.181189
0.183044
0.184869
0.185585
0.18552
0.185599
0.186517
0.188708
0.192021
0.195541
0.198164
0.199017
0.19854
0.197751
0.197477
0.199052
0.202562
0.205529
0.20723
0.204166
0.193913
0.180383
0.175673
0.174445
0.175595
0.178039
0.180629
0.182515
0.183873
0.185192
0.186639
0.187969
0.189133
0.19008
0.190315
0.189825
0.189055
0.188692
0.189181
0.19051
0.192949
0.194222
0.193696
0.191248
0.183739
0.174889
0.172844
0.172506
0.17288
0.174355
0.175513
0.175789
0.176077
0.177166
0.17852
0.18027
0.18168
0.183337
0.184844
0.185357
0.185182
0.18507
0.18562
0.186744
0.188465
0.189534
0.18898
0.186933
0.180392
0.170902
0.168393
0.169109
0.170871
0.172992
0.174789
0.174923
0.17393
0.172477
0.171266
0.170698
0.170811
0.171787
0.173704
0.176096
0.178035
0.179046
0.17958
0.180159
0.181182
0.18215
0.182035
0.181056
0.178138
0.170812
0.163563
0.161996
0.161969
0.162911
0.165184
0.167603
0.168867
0.169581
0.17019
0.170924
0.171701
0.172513
0.173381
0.174344
0.175004
0.175129
0.175031
0.174992
0.175241
0.175628
0.175542
0.175225
0.173768
0.169138
0.162769
0.160568
0.160305
0.160488
0.161628
0.162777
0.162802
0.162155
0.161203
0.160283
0.159624
0.159321
0.15953
0.160293
0.161991
0.164081
0.164746
0.164529
0.163726
0.162804
0.162202
0.162457
0.163115
0.163024
0.162512
0.159804
0.154236
0.151072
0.150904
0.151347
0.152586
0.154195
0.154687
0.154433
0.153814
0.15296
0.152232
0.15173
0.1515
0.151758
0.152703
0.154246
0.155519
0.155917
0.155871
0.155732
0.155525
0.155027
0.154275
0.152593
0.148687
0.143823
0.142093
0.142049
0.142289
0.14344
0.145014
0.145644
0.145558
0.14509
0.144562
0.143962
0.143722
0.143786
0.144019
0.144613
0.145645
0.148067
54.2136
1.42896
0.182302
0.173132
0.166344
0.161958
0.168902
0.181862
0.198932
0.218448
0.238803
0.259311
0.278655
0.293898
0.299411
0.303516
0.304764
0.303172
0.293784
0.260326
0.189758
0.169305
0.169302
0.173546
0.17989
0.187616
0.196648
0.205937
0.211745
0.214097
0.214847
0.215595
0.217995
0.223916
0.233592
0.245081
0.254802
0.263566
0.27204
0.270451
0.263032
0.227926
0.187475
0.182953
0.185428
0.188736
0.190556
0.191025
0.192525
0.196413
0.201977
0.20739
0.210548
0.211626
0.211948
0.21216
0.21289
0.214967
0.219292
0.227455
0.239393
0.250551
0.251139
0.24364
0.214612
0.185737
0.182954
0.184688
0.187264
0.188908
0.189319
0.189766
0.1909
0.19278
0.194996
0.197137
0.199216
0.201197
0.202985
0.204627
0.206647
0.209894
0.215346
0.222548
0.230178
0.232493
0.228486
0.218697
0.196475
0.186424
0.187089
0.18945
0.192098
0.193511
0.193611
0.193134
0.192874
0.193752
0.196328
0.200548
0.205191
0.208335
0.209384
0.209042
0.208317
0.208313
0.210424
0.214407
0.215608
0.214149
0.207083
0.19022
0.179879
0.179278
0.180534
0.182547
0.184644
0.185599
0.18575
0.18605
0.187187
0.189578
0.192789
0.195969
0.198113
0.198603
0.197974
0.197146
0.196779
0.198311
0.202199
0.205898
0.20808
0.205591
0.19586
0.181672
0.176083
0.174426
0.175214
0.177332
0.180016
0.182158
0.184386
0.186245
0.187889
0.1889
0.189574
0.190045
0.190058
0.189467
0.188593
0.187988
0.188018
0.18918
0.191672
0.19318
0.193625
0.191784
0.184809
0.175733
0.173246
0.172388
0.172581
0.173831
0.174961
0.175393
0.17583
0.177059
0.178452
0.180204
0.181493
0.182903
0.184148
0.18459
0.184418
0.184247
0.184566
0.185487
0.187165
0.188396
0.188113
0.186607
0.181235
0.172367
0.169668
0.170415
0.172224
0.174109
0.17567
0.17573
0.174654
0.173149
0.171911
0.171307
0.171418
0.172332
0.174127
0.176447
0.178355
0.179244
0.179577
0.179903
0.180653
0.181577
0.181601
0.180919
0.178343
0.171407
0.164138
0.162552
0.162481
0.163289
0.165426
0.168017
0.169491
0.170236
0.170863
0.171565
0.172331
0.173143
0.173967
0.174763
0.175177
0.1751
0.174824
0.174692
0.174945
0.175486
0.175586
0.175735
0.174767
0.170589
0.164213
0.161628
0.161145
0.161265
0.162312
0.1633
0.163352
0.16272
0.161666
0.16057
0.159693
0.159216
0.159159
0.159675
0.161055
0.162894
0.163578
0.163376
0.162681
0.161905
0.161361
0.16162
0.162288
0.162276
0.161899
0.159648
0.154559
0.151443
0.151323
0.15178
0.15301
0.154453
0.154757
0.154431
0.153699
0.152572
0.151689
0.151038
0.150711
0.150921
0.151877
0.153588
0.15513
0.155749
0.155784
0.155719
0.155685
0.155383
0.154884
0.153394
0.149376
0.144254
0.142431
0.142307
0.142542
0.14374
0.145304
0.145917
0.145786
0.145363
0.144846
0.144334
0.144215
0.144345
0.144573
0.145106
0.146024
0.148265
54.069
1.60387
0.184532
0.173578
0.165738
0.161111
0.168395
0.181818
0.19942
0.218615
0.237942
0.257637
0.276672
0.292053
0.297872
0.3025
0.303241
0.300714
0.290914
0.260021
0.189846
0.165311
0.164876
0.169594
0.177563
0.187251
0.197428
0.206604
0.211141
0.21318
0.214275
0.215379
0.218167
0.224243
0.233818
0.244922
0.254425
0.263274
0.271845
0.270916
0.264527
0.231494
0.188841
0.182983
0.184601
0.187758
0.189936
0.190759
0.192417
0.196347
0.202072
0.207729
0.21117
0.212318
0.212544
0.212727
0.213321
0.214904
0.218276
0.225361
0.237069
0.24901
0.251328
0.244696
0.216824
0.186433
0.1827
0.183876
0.186507
0.188673
0.189619
0.190487
0.191795
0.193547
0.195335
0.196987
0.198543
0.20006
0.201588
0.203227
0.205611
0.209389
0.215379
0.222497
0.230046
0.232725
0.22942
0.220655
0.199401
0.189157
0.189335
0.190331
0.192091
0.193258
0.193179
0.192734
0.192879
0.194424
0.197712
0.202163
0.206395
0.208821
0.209386
0.208698
0.207801
0.207758
0.209904
0.214064
0.215778
0.214075
0.207153
0.19094
0.179649
0.17871
0.180029
0.18229
0.184844
0.186205
0.186707
0.187257
0.188504
0.190603
0.193312
0.19589
0.197602
0.197943
0.197405
0.196703
0.196428
0.197798
0.201886
0.206102
0.208467
0.206862
0.197977
0.183311
0.176984
0.174999
0.175367
0.177123
0.179629
0.181696
0.184402
0.186244
0.187753
0.188424
0.188945
0.189583
0.189877
0.189646
0.188862
0.188042
0.187582
0.188448
0.190823
0.192478
0.193655
0.192295
0.185592
0.176262
0.173424
0.172129
0.172175
0.173327
0.174515
0.175222
0.17588
0.177199
0.178596
0.180104
0.181236
0.182425
0.183532
0.184022
0.18392
0.183712
0.183737
0.184322
0.185739
0.187191
0.187024
0.18607
0.181899
0.173997
0.170898
0.171385
0.172978
0.174715
0.176132
0.176112
0.175134
0.173835
0.172755
0.172278
0.172446
0.173504
0.175311
0.177477
0.179106
0.179641
0.179685
0.179792
0.180421
0.181316
0.18138
0.181079
0.178984
0.172662
0.165411
0.16367
0.163491
0.164129
0.166028
0.168457
0.169782
0.170358
0.17096
0.171594
0.172276
0.173011
0.173808
0.174597
0.174967
0.174779
0.174311
0.174022
0.174209
0.174929
0.175375
0.175822
0.175115
0.171209
0.164775
0.161942
0.161311
0.161365
0.162333
0.163307
0.16341
0.162884
0.161845
0.160738
0.15977
0.159128
0.158847
0.159156
0.160264
0.161866
0.162594
0.162397
0.161832
0.161265
0.160934
0.161267
0.16183
0.161901
0.161549
0.159347
0.154617
0.15173
0.15154
0.151849
0.153006
0.154279
0.15453
0.154195
0.153411
0.152105
0.151103
0.150393
0.150014
0.150212
0.151186
0.153003
0.154677
0.155354
0.155508
0.155633
0.155851
0.155825
0.155608
0.154431
0.150538
0.145006
0.142814
0.142527
0.142659
0.143657
0.144993
0.145528
0.145341
0.144992
0.1445
0.144146
0.144107
0.144215
0.144388
0.144761
0.145414
0.147478
54.0505
1.63641
0.185776
0.172372
0.16351
0.159932
0.167482
0.181505
0.199361
0.217992
0.236383
0.256035
0.275598
0.291066
0.296589
0.301014
0.300821
0.297076
0.287496
0.258399
0.189726
0.162575
0.161826
0.166905
0.17631
0.18729
0.197946
0.206081
0.210722
0.213204
0.214901
0.216761
0.220094
0.226054
0.234837
0.244973
0.254277
0.263501
0.271916
0.271121
0.264928
0.232712
0.188833
0.182051
0.182943
0.186123
0.18906
0.190711
0.192751
0.196605
0.202108
0.207674
0.211299
0.212821
0.213372
0.21379
0.214534
0.215728
0.218115
0.223765
0.234892
0.246956
0.250607
0.244761
0.21768
0.187086
0.182265
0.183004
0.185809
0.18864
0.190334
0.191689
0.193133
0.194697
0.196142
0.197431
0.198627
0.199798
0.20112
0.202718
0.205243
0.209233
0.215046
0.221679
0.229283
0.232417
0.23035
0.222448
0.201767
0.190764
0.190426
0.190509
0.191903
0.192826
0.192652
0.192344
0.192988
0.195287
0.199092
0.203432
0.206905
0.208636
0.208812
0.207764
0.206821
0.207041
0.209483
0.213817
0.216037
0.214435
0.207898
0.192356
0.18008
0.178535
0.179911
0.182546
0.185544
0.187285
0.188095
0.188755
0.189865
0.191554
0.193545
0.195484
0.196918
0.19737
0.197043
0.196513
0.196299
0.197616
0.201689
0.20609
0.208367
0.207592
0.199723
0.184995
0.178205
0.176239
0.176352
0.177875
0.180163
0.182019
0.184393
0.185664
0.186792
0.187224
0.187906
0.189035
0.190047
0.190086
0.18936
0.188317
0.187724
0.188349
0.190553
0.192158
0.193618
0.192651
0.185895
0.176383
0.173363
0.171783
0.171733
0.172907
0.174295
0.175358
0.176263
0.177555
0.178874
0.17992
0.180842
0.181857
0.182996
0.183686
0.183738
0.183491
0.183252
0.183507
0.184719
0.186318
0.186284
0.185768
0.182512
0.175335
0.171675
0.171999
0.173299
0.17495
0.176248
0.176275
0.175467
0.174432
0.173609
0.17338
0.1739
0.175084
0.17681
0.178772
0.179968
0.180098
0.179906
0.179866
0.18041
0.181364
0.181571
0.181615
0.180018
0.174282
0.167149
0.165018
0.164752
0.165191
0.16682
0.16887
0.169862
0.170245
0.170523
0.170801
0.171266
0.17184
0.172588
0.173492
0.174003
0.173861
0.173411
0.173127
0.173343
0.174133
0.174619
0.175154
0.174617
0.170946
0.164491
0.16154
0.160833
0.160837
0.161799
0.162845
0.162956
0.162536
0.161655
0.160627
0.159781
0.159098
0.158692
0.158852
0.159817
0.161179
0.161879
0.161671
0.161219
0.160879
0.160808
0.16127
0.161692
0.161896
0.161457
0.159142
0.154481
0.151681
0.151461
0.151733
0.152893
0.154011
0.154172
0.15379
0.152976
0.151616
0.150535
0.149862
0.149472
0.149669
0.150672
0.152554
0.154297
0.15501
0.15523
0.155532
0.156115
0.156396
0.156428
0.155553
0.151924
0.145993
0.143178
0.142722
0.142782
0.143615
0.1447
0.145105
0.14489
0.14447
0.143797
0.143414
0.143336
0.143319
0.143361
0.143558
0.143972
0.145961
54.0799
1.63097
0.187264
0.171557
0.162027
0.159716
0.167343
0.181621
0.199061
0.216871
0.234727
0.254512
0.274694
0.29012
0.295222
0.299171
0.297839
0.292788
0.283408
0.256085
0.189804
0.161307
0.161095
0.166978
0.176925
0.187712
0.197704
0.205071
0.210162
0.213577
0.216508
0.21946
0.22333
0.228897
0.236341
0.244781
0.253602
0.263704
0.271957
0.271233
0.264633
0.232385
0.188145
0.180334
0.180821
0.184166
0.188014
0.190799
0.193419
0.197108
0.201998
0.206975
0.210878
0.213084
0.214441
0.215355
0.216265
0.217083
0.218488
0.222842
0.2332
0.244689
0.249326
0.244227
0.217678
0.187547
0.181929
0.182134
0.185158
0.188826
0.191454
0.193297
0.194817
0.19622
0.197515
0.198625
0.199614
0.200567
0.20165
0.203163
0.205546
0.209176
0.214238
0.220447
0.227952
0.231413
0.231024
0.22359
0.203231
0.191931
0.190736
0.190532
0.191554
0.192272
0.192139
0.192065
0.193213
0.196145
0.200317
0.204384
0.207087
0.208152
0.207735
0.206495
0.205677
0.206245
0.209114
0.213778
0.216523
0.215273
0.209269
0.194322
0.1811
0.178875
0.180069
0.182958
0.1863
0.188435
0.189403
0.190181
0.191109
0.192246
0.193552
0.195019
0.196308
0.196911
0.196836
0.196503
0.196339
0.1975
0.201432
0.205873
0.207857
0.207687
0.20077
0.186358
0.179392
0.177635
0.17769
0.179257
0.181465
0.183127
0.184627
0.185258
0.185673
0.185881
0.186707
0.188339
0.189958
0.190446
0.190146
0.189116
0.188421
0.188919
0.190939
0.192269
0.193501
0.19248
0.185625
0.1761
0.173129
0.171567
0.171565
0.172851
0.174556
0.175836
0.176942
0.178067
0.178988
0.179629
0.180323
0.181285
0.182597
0.183587
0.183792
0.183552
0.18319
0.183203
0.184289
0.186028
0.186136
0.185937
0.183251
0.176324
0.172145
0.172228
0.173238
0.174815
0.176114
0.176239
0.175642
0.174903
0.174489
0.174613
0.175366
0.176601
0.178236
0.180082
0.180939
0.180782
0.180368
0.180189
0.18071
0.181817
0.182307
0.182678
0.181452
0.176091
0.168917
0.166343
0.166114
0.166331
0.167648
0.169244
0.169711
0.169594
0.16933
0.169271
0.169467
0.169845
0.170519
0.171618
0.172479
0.172638
0.172424
0.172253
0.172524
0.173217
0.173557
0.173876
0.173238
0.169635
0.163307
0.160393
0.159724
0.159739
0.160748
0.161904
0.162062
0.161882
0.161251
0.160373
0.159724
0.159129
0.158742
0.158856
0.159709
0.160932
0.161535
0.161322
0.160914
0.160661
0.160782
0.161291
0.161745
0.162082
0.161602
0.159126
0.154379
0.151538
0.151124
0.151277
0.152308
0.153383
0.153561
0.153163
0.152364
0.151096
0.150045
0.149433
0.149082
0.149334
0.150414
0.152355
0.154069
0.154788
0.155087
0.155528
0.156388
0.157128
0.157334
0.156636
0.153232
0.14693
0.143546
0.142972
0.142968
0.143718
0.144546
0.14459
0.144275
0.143597
0.142691
0.142153
0.141927
0.141754
0.141641
0.141771
0.142244
0.144471
54.0133
1.69931
0.187652
0.171054
0.161147
0.160479
0.168104
0.182183
0.198706
0.215719
0.233242
0.253145
0.273236
0.288675
0.293518
0.297222
0.295046
0.288861
0.279611
0.253923
0.190406
0.161246
0.162056
0.168658
0.178592
0.188127
0.196288
0.203162
0.209029
0.213999
0.218588
0.222788
0.227239
0.232274
0.237924
0.244306
0.252491
0.263183
0.271209
0.271754
0.264294
0.231363
0.187578
0.178813
0.178634
0.182066
0.186822
0.19094
0.194301
0.197805
0.201695
0.205706
0.209616
0.212853
0.21535
0.217208
0.218366
0.218954
0.219674
0.222954
0.23216
0.242192
0.247327
0.242912
0.21696
0.187698
0.181737
0.181434
0.184604
0.189136
0.19271
0.195283
0.196938
0.198203
0.199376
0.200435
0.201384
0.202378
0.203503
0.205104
0.207225
0.209996
0.213465
0.218684
0.226252
0.230037
0.231208
0.223758
0.203528
0.192138
0.19037
0.190145
0.19108
0.191817
0.191822
0.191975
0.19346
0.196721
0.200984
0.204705
0.206681
0.207137
0.206418
0.205217
0.204668
0.205624
0.208895
0.213876
0.217133
0.216281
0.210945
0.19653
0.182391
0.179577
0.18033
0.183125
0.186678
0.189208
0.190486
0.191333
0.192007
0.192685
0.193547
0.194742
0.195997
0.196713
0.196814
0.196615
0.196519
0.197629
0.201341
0.205601
0.207285
0.207285
0.20106
0.187155
0.180204
0.178731
0.178873
0.180677
0.182974
0.184285
0.184821
0.185031
0.184793
0.184754
0.185563
0.187527
0.189629
0.190664
0.190899
0.19027
0.189596
0.190024
0.191865
0.192861
0.193427
0.191984
0.18473
0.175387
0.172806
0.171621
0.171815
0.173336
0.175327
0.17673
0.177711
0.178501
0.178925
0.179309
0.179844
0.18082
0.182313
0.183646
0.184088
0.183967
0.183633
0.183581
0.184697
0.186598
0.186843
0.186801
0.184172
0.177009
0.172233
0.172139
0.172812
0.174286
0.17574
0.176104
0.17584
0.175472
0.175446
0.17583
0.17654
0.17766
0.179362
0.181046
0.181654
0.181368
0.180934
0.180819
0.181357
0.182554
0.183398
0.183918
0.182915
0.177858
0.170211
0.167208
0.167188
0.167274
0.168167
0.169118
0.16916
0.168619
0.167959
0.167545
0.16741
0.167689
0.168407
0.169722
0.171053
0.171604
0.171633
0.171597
0.171857
0.172387
0.17253
0.172431
0.171497
0.167709
0.161352
0.158575
0.158049
0.158238
0.159419
0.160788
0.16107
0.161048
0.160619
0.159904
0.159477
0.15909
0.158867
0.159012
0.159931
0.161125
0.161632
0.161365
0.160981
0.16081
0.160983
0.161548
0.162098
0.162555
0.162023
0.159314
0.154337
0.151379
0.150717
0.150704
0.151605
0.152647
0.15283
0.152428
0.151691
0.150591
0.14968
0.149174
0.148916
0.149273
0.150497
0.152508
0.154182