/*--------------------------------*- C++ -*----------------------------------*\
| =========                 |                                                 |
| \\      /  F ield         | OpenFOAM: The Open Source CFD Toolbox           |
|  \\    /   O peration     | Version:  2306                                  |
|   \\  /    A nd           | Website:  www.openfoam.com                      |
|    \\/     M anipulation  |                                                 |
\*---------------------------------------------------------------------------*/
FoamFile
{
    version     2.0;
    format      ascii;
    arch        "LSB;label=32;scalar=64";
    class       volVectorField;
    location    "0.18";
    object      U;
}
// * * * * * * * * * * * * * * * * * * * * * * * * * * * * * * * * * * * * * //

dimensions      [0 1 -1 0 0 0 0];

internalField   nonuniform List<vector> 
6000
(
(-2332.47 -0.118744 0)
(-816.124 0.506247 0)
(-108.605 1.72533 0)
(-231.385 2.41626 0)
(-264.142 2.32152 0)
(-241.498 1.85612 0)
(-187.978 2.06556 0)
(-105.72 1.78387 0)
(-7.41385 1.32008 0)
(91.3407 0.103727 0)
(176.248 -0.836141 0)
(245.525 -2.96569 0)
(299.825 -5.55857 0)
(335.391 -5.68622 0)
(358.323 -5.06888 0)
(392.599 -4.66593 0)
(400.706 -4.63136 0)
(368.632 -4.17353 0)
(269.55 -0.0302637 0)
(4.91344 4.24099 0)
(-228.218 7.13426 0)
(-211.705 9.17666 0)
(-158.257 10.3813 0)
(-100.387 10.7774 0)
(-50.1554 11.6036 0)
(-7.07152 12.4974 0)
(30.6799 12.0957 0)
(62.6923 10.3153 0)
(86.5464 9.96484 0)
(103.312 8.06865 0)
(121.825 4.60059 0)
(149.337 1.4255 0)
(186.108 -1.46772 0)
(227.216 -3.19956 0)
(267.456 -3.92985 0)
(306.688 -4.26127 0)
(347.912 -5.47087 0)
(378.451 -6.48473 0)
(390.755 -5.06909 0)
(396.23 -2.36198 0)
(314.9 1.87509 0)
(77.7148 5.34679 0)
(-12.4932 5.87158 0)
(-17.2657 5.18074 0)
(-10.69 4.50819 0)
(4.00664 4.27923 0)
(20.211 3.07246 0)
(39.0164 2.69395 0)
(60.7025 2.48312 0)
(84.1163 2.17231 0)
(107.133 1.84593 0)
(128.227 0.949597 0)
(147.497 0.375806 0)
(166.407 -1.04657 0)
(186.941 -2.77465 0)
(208.711 -4.47148 0)
(228.673 -5.77666 0)
(243.859 -6.03951 0)
(256.118 -6.14551 0)
(276.453 -5.73149 0)
(310.458 -5.38748 0)
(325.732 -4.43068 0)
(329.443 -3.23435 0)
(287.218 -2.26328 0)
(132.365 -1.99339 0)
(25.1094 -2.28979 0)
(-0.315894 -2.3501 0)
(-0.996395 -2.30034 0)
(15.4306 -1.94616 0)
(39.2591 -1.39095 0)
(61.4186 -0.894793 0)
(85.0953 -0.570512 0)
(110.514 -0.767554 0)
(135.918 -0.192699 0)
(151.597 0.16303 0)
(149.786 0.272043 0)
(142.529 0.30568 0)
(143.844 0.310832 0)
(161.005 0.519826 0)
(184.184 0.977495 0)
(213.028 1.15732 0)
(236.005 1.90062 0)
(255.414 1.94202 0)
(268.634 1.08956 0)
(283.957 0.168402 0)
(287.71 -0.12884 0)
(284.795 0.507765 0)
(238.716 1.52824 0)
(135.849 2.20951 0)
(96.6853 2.15954 0)
(104.274 2.17227 0)
(112.759 2.47666 0)
(117.897 2.58797 0)
(117.516 2.1785 0)
(115.779 1.9568 0)
(123.641 1.52931 0)
(137.678 1.17436 0)
(153.28 0.920644 0)
(166.393 1.03383 0)
(177.642 1.4729 0)
(190.076 1.15035 0)
(203.735 2.04999 0)
(216.324 1.94544 0)
(227.548 1.51059 0)
(238.286 0.61156 0)
(249.059 -0.522366 0)
(263.963 -1.22435 0)
(280.128 -1.81088 0)
(284.233 -1.80844 0)
(270.405 -1.61841 0)
(238.449 -2.09318 0)
(155.335 -2.55306 0)
(100.736 -2.98119 0)
(98.8445 -3.36886 0)
(99.7864 -3.72425 0)
(109.43 -4.14384 0)
(119.709 -4.8571 0)
(126.253 -4.90055 0)
(132.136 -4.29802 0)
(141.987 -3.61642 0)
(154.049 -2.88874 0)
(167.754 -2.25989 0)
(183.729 -1.25396 0)
(198.717 -0.0279252 0)
(208.428 0.491978 0)
(211.033 0.317956 0)
(208.427 -0.881368 0)
(209.464 -1.09591 0)
(218.334 -0.410543 0)
(235.793 0.509666 0)
(257.281 0.896728 0)
(271.005 -0.0137503 0)
(270.801 -1.04043 0)
(247.655 -1.96804 0)
(176.78 -2.13143 0)
(99.36 -1.77908 0)
(77.9089 -1.0358 0)
(77.3826 0.0579452 0)
(90.7166 1.46808 0)
(113.114 2.91294 0)
(131.243 4.61555 0)
(147.534 5.36873 0)
(159.722 6.11928 0)
(169.875 6.90734 0)
(181.009 7.41873 0)
(191.57 7.2235 0)
(202.87 6.86527 0)
(212.5 5.58371 0)
(218.915 4.40424 0)
(219.81 2.93972 0)
(217.821 1.59648 0)
(219.839 0.659814 0)
(228.502 0.00483884 0)
(243.994 -0.845992 0)
(260.66 -2.30774 0)
(274.24 -3.26525 0)
(277.658 -3.90983 0)
(259.603 -4.48927 0)
(197.793 -4.39519 0)
(142.532 -4.05333 0)
(135.88 -4.2179 0)
(135.282 -4.91001 0)
(140.512 -5.76968 0)
(150.821 -6.6025 0)
(157.088 -7.23935 0)
(157.394 -7.14749 0)
(156.783 -7.00239 0)
(158.603 -6.65844 0)
(163.79 -6.44516 0)
(172.937 -6.62576 0)
(185.262 -6.85661 0)
(199.062 -7.082 0)
(209.457 -7.3317 0)
(212.525 -7.43496 0)
(211.652 -6.72544 0)
(211.095 -5.40081 0)
(212.17 -4.0028 0)
(216.417 -2.73981 0)
(224.954 -1.07011 0)
(231.042 0.0452669 0)
(232.112 0.635651 0)
(221.609 1.0765 0)
(181.835 1.44409 0)
(131.181 2.13608 0)
(120.746 3.04477 0)
(124.739 3.29874 0)
(136.891 3.3554 0)
(154.363 3.49984 0)
(171.443 3.18465 0)
(179.868 2.64899 0)
(180.656 1.46827 0)
(175.476 0.188645 0)
(168.069 -0.936582 0)
(163.547 -1.53629 0)
(163.787 -1.28422 0)
(169.995 -0.966618 0)
(183.284 0.187441 0)
(200.864 1.64142 0)
(216.933 2.85121 0)
(229.013 3.34334 0)
(237.43 3.40945 0)
(243.507 2.90732 0)
(250.922 2.45389 0)
(259.716 1.86968 0)
(264.023 1.09305 0)
(261.036 0.223571 0)
(251.573 -1.01925 0)
(214.909 -2.03456 0)
(169.559 -2.86954 0)
(160.992 -3.29212 0)
(166.104 -3.36162 0)
(176.562 -3.15407 0)
(189.098 -2.79198 0)
(196.853 -2.41852 0)
(200.099 -2.05995 0)
(200.564 -1.61724 0)
(200.068 -1.17606 0)
(199.73 -0.676868 0)
(198.996 -0.153469 0)
(198.139 0.338671 0)
(197.087 0.361168 0)
(199.426 0.225991 0)
(205.941 0.578376 0)
(214.561 1.14234 0)
(223.622 1.06092 0)
(232.773 0.908493 0)
(241.915 0.771077 0)
(248.291 0.690409 0)
(252.109 0.522594 0)
(252.164 0.366035 0)
(242.844 0.264863 0)
(207.017 0.310758 0)
(165.759 0.517925 0)
(156.898 0.532096 0)
(159.294 0.335464 0)
(164.77 -0.0876546 0)
(173.949 -0.760351 0)
(184.267 -1.35528 0)
(187.409 -2.45524 0)
(184.928 -3.32226 0)
(180.815 -4.11044 0)
(177.056 -4.5577 0)
(175.072 -4.18999 0)
(175.323 -3.50699 0)
(178.572 -2.90672 0)
(187.558 -2.57987 0)
(204.006 -2.31291 0)
(225.077 -2.20822 0)
(241.673 -2.71259 0)
(249.98 -3.31643 0)
(253.621 -4.23224 0)
(256.378 -5.41348 0)
(258.28 -6.54015 0)
(258.375 -7.0173 0)
(256.842 -7.06568 0)
(249.678 -6.34752 0)
(228.502 -4.84625 0)
(180.967 -3.18379 0)
(144.17 -1.41561 0)
(140.029 -0.205854 0)
(143.779 0.799547 0)
(153.616 1.9488 0)
(166.718 2.68834 0)
(181.372 2.95255 0)
(191.1 2.88691 0)
(194.323 2.281 0)
(194.749 1.56061 0)
(194.054 0.315495 0)
(196.13 -0.654794 0)
(200.419 -1.38964 0)
(207.234 -1.75242 0)
(216.09 -2.29909 0)
(224.446 -2.71551 0)
(228.741 -2.86952 0)
(229.773 -2.86319 0)
(230.381 -2.67614 0)
(231.591 -2.48124 0)
(233.763 -2.20959 0)
(237.012 -1.91466 0)
(240.424 -1.80344 0)
(242.5 -1.8827 0)
(238.96 -1.97822 0)
(218.238 -1.94891 0)
(180.639 -1.85526 0)
(163.374 -1.72678 0)
(161.509 -1.67633 0)
(165.193 -1.71583 0)
(173.126 -1.78825 0)
(184.767 -1.68812 0)
(190.018 -1.21369 0)
(190.319 -0.612408 0)
(187.161 0.270349 0)
(181.96 1.29094 0)
(179.077 2.38256 0)
(179.42 3.09148 0)
(181.524 3.53733 0)
(185.892 3.85786 0)
(193.264 4.18487 0)
(206.309 4.28014 0)
(234.552 4.37656 0)
(-2333.51 -0.654286 0)
(-857.803 3.11308 0)
(-110.396 4.56727 0)
(-232.627 4.54109 0)
(-265.157 3.69076 0)
(-242.754 4.2291 0)
(-189.464 3.66135 0)
(-107.882 4.31692 0)
(-10.9011 3.46209 0)
(85.7169 0.843402 0)
(169.45 -4.71562 0)
(240.626 -10.3108 0)
(300.264 -15.4313 0)
(339.47 -11.8198 0)
(362.11 -6.90746 0)
(391.52 -8.65873 0)
(396.817 -15.1384 0)
(368.13 -17.7729 0)
(281.964 -13.3028 0)
(31.2996 3.78413 0)
(-216.923 23.8912 0)
(-207.938 30.407 0)
(-157.22 32.6275 0)
(-100.303 32.7065 0)
(-50.0205 34.2681 0)
(-6.91371 36.3886 0)
(30.043 35.23 0)
(59.6151 30.3302 0)
(81.0846 28.061 0)
(98.0376 22.0229 0)
(119.237 14.304 0)
(149.731 10.0961 0)
(187.205 6.97008 0)
(227.151 5.86254 0)
(263.831 5.16633 0)
(298.571 1.67428 0)
(337.99 -8.74761 0)
(375.508 -16.7352 0)
(391.833 -15.2084 0)
(398.989 -14.139 0)
(329.197 -8.34751 0)
(93.493 8.64069 0)
(-11.8391 13.6191 0)
(-20.0423 11.0794 0)
(-14.2329 8.88237 0)
(1.64001 7.97836 0)
(19.9557 6.77668 0)
(39.7492 7.93453 0)
(61.0542 9.05097 0)
(82.9123 8.72377 0)
(103.779 7.39689 0)
(123.119 4.05891 0)
(142.262 -0.550543 0)
(162.946 -4.67507 0)
(185.479 -8.12919 0)
(208.404 -10.9577 0)
(228.761 -12.9366 0)
(243.722 -13.2322 0)
(254.552 -14.7755 0)
(273.625 -17.0514 0)
(309.462 -21.0288 0)
(326.862 -22.7034 0)
(333.21 -19.8009 0)
(293.783 -15.7845 0)
(137.419 -8.96185 0)
(26.9906 -5.76543 0)
(1.84641 -5.2306 0)
(1.15477 -4.45841 0)
(17.9351 -2.70853 0)
(41.8042 0.0558652 0)
(63.4257 2.08443 0)
(86.5588 2.90441 0)
(110.74 2.18446 0)
(135.278 1.32427 0)
(149.408 0.720769 0)
(148.603 0.300559 0)
(142.639 0.945743 0)
(145.152 2.16605 0)
(162.195 3.7695 0)
(184.653 5.13536 0)
(211.968 4.71668 0)
(235.11 4.55623 0)
(252.221 0.714249 0)
(266.056 -2.38765 0)
(282.501 -5.09259 0)
(286.875 -5.48834 0)
(285.045 -4.59867 0)
(240.517 -3.22865 0)
(137.69 -0.00871048 0)
(96.4041 1.82594 0)
(103.021 1.89184 0)
(109.833 0.959586 0)
(115.114 -0.442964 0)
(115.567 -2.08754 0)
(115.708 -1.86687 0)
(124.431 -0.590419 0)
(138.915 0.276438 0)
(154.703 1.37909 0)
(167.372 2.99157 0)
(177.643 4.38888 0)
(188.376 3.36505 0)
(200.983 3.81179 0)
(213.791 1.9726 0)
(224.831 -1.65963 0)
(236.01 -4.83241 0)
(246.601 -8.06784 0)
(263.068 -9.70549 0)
(281.338 -10.0889 0)
(286.61 -8.5054 0)
(274.517 -6.36429 0)
(242.677 -4.77699 0)
(157.321 -4.42063 0)
(100.816 -4.92145 0)
(97.4902 -6.29151 0)
(97.9193 -6.84115 0)
(107.628 -7.40912 0)
(119.032 -8.97603 0)
(126.916 -8.68916 0)
(133.123 -7.153 0)
(142.629 -5.76584 0)
(154.268 -5.10598 0)
(168.107 -4.81655 0)
(184.061 -4.38544 0)
(198.668 -3.93187 0)
(208.683 -4.34477 0)
(212.377 -4.33201 0)
(212.061 -3.80911 0)
(212.915 -0.153791 0)
(220.556 2.99518 0)
(236.231 5.1559 0)
(256.572 5.4961 0)
(267.825 2.58313 0)
(265.667 -1.60424 0)
(244.671 -5.24222 0)
(177.912 -6.33129 0)
(101.53 -4.27665 0)
(82.6377 -0.98831 0)
(82.7308 3.30506 0)
(94.7001 7.3419 0)
(115.343 10.9207 0)
(132.91 14.9497 0)
(147.966 15.8466 0)
(159.275 16.2071 0)
(169.082 16.2708 0)
(179.996 16.3262 0)
(189.957 15.3352 0)
(201.083 13.8484 0)
(211.752 11.4154 0)
(219.988 9.97163 0)
(221.935 9.03653 0)
(219.867 9.45363 0)
(220.047 9.24803 0)
(226.362 8.6633 0)
(240.497 6.18762 0)
(256.636 1.13046 0)
(268.564 -3.86479 0)
(272.492 -8.68787 0)
(256.356 -12.6243 0)
(197.295 -14.1203 0)
(141.991 -13.5628 0)
(134.957 -14.5087 0)
(133.802 -16.4867 0)
(139.277 -18.6715 0)
(150.845 -19.9559 0)
(158.896 -19.851 0)
(160.112 -17.6726 0)
(159.073 -15.9229 0)
(160.012 -14.5658 0)
(163.86 -14.7362 0)
(171.1 -16.5182 0)
(182.105 -18.8849 0)
(196.236 -21.0809 0)
(208.902 -22.7995 0)
(215.245 -22.4572 0)
(216.04 -20.0248 0)
(215.519 -16.355 0)
(216.807 -12.224 0)
(221.889 -8.88029 0)
(229.179 -4.44295 0)
(233.724 -1.47483 0)
(234.054 0.497798 0)
(223.318 2.71592 0)
(183.392 4.33253 0)
(132.61 6.41711 0)
(121.425 8.61858 0)
(124.994 8.64094 0)
(135.301 7.83614 0)
(151.67 6.55939 0)
(168.251 4.33092 0)
(176.503 1.60709 0)
(177.533 -1.85987 0)
(173.728 -3.97878 0)
(169.08 -4.1869 0)
(166.505 -2.73875 0)
(167.321 -0.245683 0)
(173.872 2.05433 0)
(186.369 4.62025 0)
(202.599 7.55476 0)
(217.632 9.54005 0)
(228.722 9.87095 0)
(236.405 8.98405 0)
(242.501 7.37064 0)
(250.775 6.34399 0)
(259.977 5.77782 0)
(263.624 5.1867 0)
(261.031 4.6157 0)
(250.946 3.87627 0)
(212.878 2.39701 0)
(167.68 0.222791 0)
(158.994 -1.23323 0)
(163.469 -2.80698 0)
(173.095 -5.07908 0)
(186.865 -6.86009 0)
(194.562 -8.04491 0)
(198.022 -8.93211 0)
(199.035 -9.3008 0)
(199.046 -9.65133 0)
(198.834 -9.92812 0)
(198.243 -10.142 0)
(197.209 -10.2836 0)
(196.978 -10.4421 0)
(200.36 -10.1959 0)
(207.864 -8.64195 0)
(216.948 -6.13423 0)
(225.442 -4.10576 0)
(233.479 -2.78518 0)
(241.743 -2.14276 0)
(247.87 -2.13462 0)
(251.6 -2.49304 0)
(251.618 -2.93953 0)
(242.306 -3.63254 0)
(206.654 -4.11637 0)
(165.158 -4.21043 0)
(156.115 -5.02071 0)
(158.271 -6.13667 0)
(163.233 -7.94866 0)
(172.267 -10.1053 0)
(182.594 -11.9844 0)
(186.017 -14.6165 0)
(184.482 -15.9312 0)
(181.586 -16.2843 0)
(179.375 -15.4048 0)
(178.269 -13.0555 0)
(178.856 -10.2033 0)
(182.318 -7.56401 0)
(190.868 -5.81931 0)
(206.429 -4.26864 0)
(226.148 -2.62695 0)
(240.622 -2.02033 0)
(246.537 -3.93045 0)
(249.148 -7.32349 0)
(252.149 -11.2967 0)
(255.782 -14.5692 0)
(257.32 -16.0358 0)
(256.495 -16.7308 0)
(250.889 -17.4786 0)
(233.967 -15.644 0)
(191.767 -9.71089 0)
(149.996 -1.42986 0)
(142.411 1.64918 0)
(144.667 3.20247 0)
(153.22 4.91554 0)
(165.775 5.61621 0)
(180.568 5.13906 0)
(190.662 4.20057 0)
(193.709 2.73403 0)
(194.117 1.27992 0)
(193.399 -0.0821538 0)
(195.023 -0.90127 0)
(198.673 -1.82786 0)
(204.951 -3.29591 0)
(213.496 -5.49837 0)
(222.375 -7.51952 0)
(228.114 -8.68351 0)
(229.937 -8.83632 0)
(231.116 -8.32169 0)
(232.686 -7.47479 0)
(235.121 -6.28801 0)
(238.191 -5.04421 0)
(241.098 -3.94684 0)
(242.541 -3.13417 0)
(238.088 -2.87472 0)
(216.444 -3.53556 0)
(178.212 -4.93563 0)
(161.373 -6.32662 0)
(159.565 -7.663 0)
(163.453 -9.14183 0)
(172.085 -10.5228 0)
(184.776 -11.0844 0)
(190.728 -10.6868 0)
(191.912 -9.44085 0)
(189.472 -7.70748 0)
(184.515 -5.24459 0)
(181.306 -2.58494 0)
(181.57 -0.53392 0)
(183.907 0.693581 0)
(188.514 1.87875 0)
(195.903 3.22444 0)
(208.754 4.56564 0)
(236.297 5.71344 0)
(-2332.5 -1.28654 0)
(-834.525 6.75738 0)
(-118.377 8.18293 0)
(-238.246 4.33068 0)
(-269.226 1.08208 0)
(-246.016 2.88086 0)
(-191.17 2.4751 0)
(-109.738 4.24407 0)
(-15.0749 2.04666 0)
(78.2673 -2.64552 0)
(160.992 -10.3874 0)
(235.223 -17.3879 0)
(301.967 -23.259 0)
(345.424 -17.4514 0)
(365.761 -9.88666 0)
(386.431 -12.4192 0)
(388.892 -20.161 0)
(366.238 -24.1811 0)
(300.17 -16.2684 0)
(75.6923 5.01621 0)
(-195.165 34.468 0)
(-201.526 44.6069 0)
(-154.978 47.7177 0)
(-98.2711 48.1242 0)
(-47.5466 50.2532 0)
(-5.59213 52.9371 0)
(27.6975 50.2222 0)
(51.5832 42.5593 0)
(69.0598 38.1265 0)
(86.8649 28.7008 0)
(113.105 18.0544 0)
(149.053 14.6427 0)
(188.444 10.9394 0)
(225.641 7.71766 0)
(257.015 4.26247 0)
(287.07 -1.31692 0)
(324.304 -13.2426 0)
(369.194 -23.3325 0)
(391.367 -21.3484 0)
(400.279 -18.0533 0)
(344.156 -9.51441 0)
(118.189 11.0516 0)
(-12.6044 19.3105 0)
(-25.9933 15.3585 0)
(-19.987 12.3614 0)
(-0.889202 10.9842 0)
(20.8436 10.381 0)
(41.3778 12.2507 0)
(61.417 13.6015 0)
(80.3593 13.0446 0)
(98.0303 11.4592 0)
(115.404 7.23023 0)
(134.547 2.31011 0)
(156.449 -3.27008 0)
(181.037 -8.42003 0)
(206.306 -12.9401 0)
(228.566 -16.0761 0)
(243.935 -17.2308 0)
(253.352 -19.0066 0)
(270.566 -22.2097 0)
(306.789 -27.9465 0)
(328.913 -32.7359 0)
(339.22 -29.1478 0)
(304.305 -23.719 0)
(147.891 -13.6773 0)
(28.9538 -7.9244 0)
(3.60947 -7.44047 0)
(3.7766 -6.18183 0)
(22.0369 -3.40754 0)
(46.3307 0.920659 0)
(67.3749 4.16946 0)
(89.2925 5.67668 0)
(111.859 4.39221 0)
(133.399 2.69485 0)
(146.127 0.972475 0)
(147.398 0.264049 0)
(144.474 2.71907 0)
(148.968 4.66472 0)
(164.844 7.86823 0)
(186.32 9.74659 0)
(210.814 8.95977 0)
(232.63 7.87454 0)
(246.454 2.71717 0)
(260.752 -1.81836 0)
(280.657 -5.34076 0)
(286.679 -5.77504 0)
(287.83 -4.2586 0)
(245.863 -2.1932 0)
(142.125 1.90374 0)
(95.8695 3.65499 0)
(101.616 2.92456 0)
(105.099 0.960467 0)
(110.205 -1.60271 0)
(112.286 -4.7299 0)
(117.007 -4.54614 0)
(126.958 -2.1626 0)
(141.513 -0.475983 0)
(157.017 0.846664 0)
(169.209 2.83475 0)
(177.845 4.72841 0)
(186.43 3.90662 0)
(196.914 4.60179 0)
(208.271 1.82294 0)
(218.726 -2.88241 0)
(229.691 -7.8714 0)
(242.036 -12.0254 0)
(260.633 -13.6244 0)
(281.27 -13.8545 0)
(287.151 -12.0216 0)
(277.931 -9.71885 0)
(245.828 -7.55693 0)
(157.572 -7.16754 0)
(100.282 -7.69267 0)
(95.7683 -9.26007 0)
(96.6407 -10.0896 0)
(106.859 -10.4943 0)
(119.9 -11.9416 0)
(129.327 -11.621 0)
(136.428 -9.88868 0)
(145.751 -7.65286 0)
(156.831 -6.10366 0)
(170.659 -5.40597 0)
(184.862 -5.27706 0)
(198.6 -5.88132 0)
(209.072 -7.20211 0)
(214.863 -7.22893 0)
(217.461 -5.92246 0)
(219.575 -1.5361 0)
(225.895 3.03705 0)
(238.112 5.64233 0)
(254.652 6.00951 0)
(261.579 1.56787 0)
(257.861 -2.97271 0)
(240.317 -7.25055 0)
(179.72 -7.60234 0)
(106.88 -4.5104 0)
(91.6242 1.47897 0)
(92.8374 6.2243 0)
(102.555 11.5187 0)
(121.388 16.3387 0)
(139.085 21.5597 0)
(151.546 23.4732 0)
(161.213 23.9151 0)
(169.011 23.5948 0)
(177.92 23.1688 0)
(186.097 21.139 0)
(196.541 18.4608 0)
(208.43 14.964 0)
(218.194 12.8872 0)
(220.834 11.295 0)
(219.032 11.348 0)
(217.842 11.0777 0)
(221.175 9.88616 0)
(233.395 6.88325 0)
(249.785 -0.256393 0)
(260.852 -6.76732 0)
(264.596 -12.7707 0)
(250.475 -17.7826 0)
(195.754 -20.1446 0)
(140.043 -20.1121 0)
(131.608 -21.9241 0)
(130.051 -24.4839 0)
(136.256 -26.6835 0)
(149.991 -27.7522 0)
(160.62 -26.8016 0)
(163.286 -24.1477 0)
(161.918 -21.9407 0)
(161.536 -20.363 0)
(163.332 -20.7644 0)
(168.324 -22.7756 0)
(177.758 -25.2462 0)
(192.468 -27.1773 0)
(208.595 -28.7554 0)
(218.525 -28.4932 0)
(222.031 -25.8759 0)
(222.361 -22.1755 0)
(222.826 -17.6125 0)
(227.381 -13.5756 0)
(234.682 -10.1308 0)
(238.352 -6.57563 0)
(239.694 -2.36833 0)
(229.006 1.62249 0)
(188.153 5.0194 0)
(136.472 8.51632 0)
(124.004 11.3529 0)
(126.3 11.5374 0)
(133.985 10.2215 0)
(148.604 8.24419 0)
(164.251 5.3083 0)
(171.022 0.680673 0)
(172.055 -3.23366 0)
(170.981 -5.00558 0)
(170.574 -4.63345 0)
(171.288 -2.01337 0)
(173.726 1.71231 0)
(180.134 4.95826 0)
(191.593 7.58572 0)
(206.533 10.714 0)
(220.126 13.0926 0)
(229.412 13.6931 0)
(235.635 12.5455 0)
(240.824 10.5873 0)
(249.066 8.96389 0)
(258.06 7.37303 0)
(260.94 6.31902 0)
(259.868 5.66212 0)
(249.29 4.71299 0)
(209.233 2.53418 0)
(165.067 -0.623889 0)
(157.087 -2.64372 0)
(161.072 -4.68773 0)
(169.828 -6.96113 0)
(184.217 -9.16204 0)
(193.681 -10.8659 0)
(197.43 -12.5321 0)
(198.652 -14.0849 0)
(198.418 -15.9781 0)
(197.406 -17.8919 0)
(197.234 -19.8132 0)
(196.092 -21.2652 0)
(197.623 -21.8059 0)
(202.908 -21.1222 0)
(212.003 -18.9435 0)
(221.522 -15.5092 0)
(228.453 -12.376 0)
(234.476 -10.3552 0)
(241.594 -8.72431 0)
(247.07 -7.6451 0)
(250.699 -7.17126 0)
(250.625 -6.97732 0)
(241.278 -7.24489 0)
(206.135 -7.51826 0)
(163.516 -7.4984 0)
(153.374 -8.61693 0)
(154.57 -10.0423 0)
(158.453 -12.702 0)
(167.541 -15.5347 0)
(178.113 -17.7995 0)
(182.166 -20.0798 0)
(181.727 -20.652 0)
(180.886 -20.4117 0)
(180.699 -18.7702 0)
(181.574 -16.1003 0)
(182.887 -12.9196 0)
(186.639 -9.52612 0)
(194.5 -7.3452 0)
(208.615 -5.76713 0)
(227.282 -3.80627 0)
(239.568 -4.1272 0)
(242.405 -6.94779 0)
(244.304 -10.9845 0)
(247.254 -15.8119 0)
(252.051 -19.7961 0)
(255.993 -22.1619 0)
(256.51 -22.5075 0)
(252.929 -22.7539 0)
(240.66 -20.1504 0)
(205.86 -13.6376 0)
(160.332 -3.94921 0)
(147.794 1.06405 0)
(148.439 2.89396 0)
(154.984 5.35914 0)
(166.066 6.04374 0)
(180.177 5.29523 0)
(189.606 4.31153 0)
(191.503 2.46785 0)
(191.641 0.555728 0)
(191.622 -1.21871 0)
(193.682 -2.19383 0)
(197.199 -3.48753 0)
(202.726 -5.42634 0)
(210.247 -8.38214 0)
(219.307 -11.2853 0)
(227.093 -13.1634 0)
(230.764 -13.602 0)
(232.969 -12.7523 0)
(235.209 -11.4005 0)
(238.059 -9.66084 0)
(241.097 -7.65918 0)
(243.57 -6.20186 0)
(244.406 -5.0427 0)
(238.658 -4.66444 0)
(214.999 -5.48236 0)
(176.392 -6.76825 0)
(160.133 -8.55476 0)
(158.353 -10.5247 0)
(161.531 -12.5596 0)
(171.061 -14.2418 0)
(185.155 -15.0632 0)
(192.966 -14.6749 0)
(195.659 -13.0087 0)
(194.287 -10.8428 0)
(189.622 -7.37076 0)
(185.211 -3.74499 0)
(184.423 -0.739524 0)
(186.441 1.2531 0)
(190.807 2.95514 0)
(197.682 4.53323 0)
(209.794 6.01972 0)
(236.292 7.12336 0)
(-2332.73 -1.69276 0)
(-873.825 9.01747 0)
(-135.438 9.36735 0)
(-248.748 3.36283 0)
(-276.455 -2.80219 0)
(-248.76 0.380294 0)
(-191.898 0.348262 0)
(-111.399 2.52532 0)
(-20.4187 -2.10368 0)
(68.6739 -8.63021 0)
(151.132 -16.2694 0)
(229.945 -23.4594 0)
(304.852 -28.4776 0)
(352.579 -22.4481 0)
(368.405 -14.0087 0)
(378.721 -13.4887 0)
(377.997 -22.0961 0)
(363.865 -25.8673 0)
(320.691 -18.6183 0)
(128.84 2.75202 0)
(-162.695 37.9803 0)
(-190.575 51.2722 0)
(-152.311 56.4972 0)
(-96.9993 58.2115 0)
(-45.888 61.3877 0)
(-5.40387 62.9245 0)
(23.1696 58.1047 0)
(39.9828 48.9186 0)
(54.0578 41.3428 0)
(75.6719 31.3661 0)
(109.116 22.5719 0)
(149.653 17.3824 0)
(189.517 11.4905 0)
(222.602 7.10837 0)
(247.435 3.08674 0)
(271.71 -3.22337 0)
(306.425 -14.5366 0)
(358.681 -24.8998 0)
(390.024 -23.7301 0)
(402.574 -18.5756 0)
(360.378 -9.63539 0)
(148.845 11.1618 0)
(-13.0834 21.9976 0)
(-33.7851 17.8027 0)
(-26.4212 14.5073 0)
(-2.89613 12.54 0)
(22.3087 13.4052 0)
(43.8037 14.9061 0)
(62.5639 16.5918 0)
(78.1124 16.5149 0)
(91.9582 15.458 0)
(106.882 11.1089 0)
(125.592 5.65533 0)
(148.939 0.436796 0)
(175.622 -4.89743 0)
(202.866 -10.7533 0)
(227.069 -15.8314 0)
(243.908 -18.6501 0)
(252.249 -20.6815 0)
(266.224 -24.3443 0)
(299.91 -30.1133 0)
(328.917 -37.2637 0)
(344.746 -34.282 0)
(315.997 -29.573 0)
(164.535 -18.7301 0)
(32.6034 -9.54307 0)
(6.82635 -8.27219 0)
(8.35354 -6.21973 0)
(28.1936 -2.75341 0)
(52.4443 2.23775 0)
(72.5239 6.15617 0)
(92.3416 8.66819 0)
(112.441 7.60014 0)
(130.115 5.40752 0)
(142.008 3.53485 0)
(146.379 2.3105 0)
(147.829 5.44019 0)
(154.365 8.08237 0)
(168.91 11.9085 0)
(189.044 14.3011 0)
(209.399 14.0848 0)
(228.693 12.3721 0)
(238.93 6.59788 0)
(254.407 1.40896 0)
(278.524 -2.70502 0)
(286.421 -3.62035 0)
(290.865 -2.95198 0)
(252.712 -1.65166 0)
(148.854 2.08124 0)
(95.899 3.48013 0)
(99.0363 1.93793 0)
(98.3396 -1.95525 0)
(103.868 -5.39856 0)
(109.631 -8.3293 0)
(119.482 -6.95738 0)
(130.736 -4.7704 0)
(144.97 -3.21754 0)
(159.85 -1.66297 0)
(171.347 0.597314 0)
(178.728 2.91994 0)
(184.426 2.54 0)
(191.488 2.55309 0)
(200.626 -1.45917 0)
(211.338 -5.94811 0)
(223.523 -9.85071 0)
(237.877 -12.4631 0)
(258.485 -13.61 0)
(281.683 -14.3575 0)
(287.959 -13.4207 0)
(281.5 -12.1583 0)
(249.254 -10.6933 0)
(158.405 -10.2477 0)
(100.64 -10.1515 0)
(94.2785 -10.8122 0)
(95.2085 -11.5638 0)
(105.831 -11.2772 0)
(121.211 -12.3869 0)
(132.94 -11.833 0)
(141.489 -9.56446 0)
(150.203 -6.51008 0)
(160.934 -4.7192 0)
(172.631 -3.80639 0)
(185.251 -4.19026 0)
(197.724 -5.23127 0)
(209.246 -6.77834 0)
(217.445 -7.69441 0)
(222.805 -7.03312 0)
(226.762 -3.64217 0)
(231.923 0.638646 0)
(240.308 3.25169 0)
(252.25 3.506 0)
(256.773 -0.62211 0)
(251.488 -4.73575 0)
(236.98 -7.57757 0)
(182.66 -6.74238 0)
(114.918 -3.01107 0)
(100.655 2.84271 0)
(103.824 7.09662 0)
(112.333 13.3231 0)
(129.398 19.7373 0)
(145.632 25.8772 0)
(154.475 29.5492 0)
(161.388 30.2777 0)
(167.803 29.0613 0)
(173.794 27.6009 0)
(180.816 24.762 0)
(190.586 20.9325 0)
(203.51 16.1429 0)
(214.473 12.6205 0)
(218.075 9.82001 0)
(217.161 8.48203 0)
(215.44 7.91588 0)
(216.139 7.05303 0)
(224.97 4.98149 0)
(241.813 -0.635878 0)
(250.978 -8.22672 0)
(254.91 -14.7981 0)
(243.124 -19.735 0)
(194.196 -22.459 0)
(138.387 -23.7447 0)
(128.205 -26.5494 0)
(127.306 -29.2085 0)
(135.286 -30.7958 0)
(151.013 -31.3074 0)
(163.247 -29.756 0)
(166.741 -26.9453 0)
(165.752 -24.6 0)
(163.305 -23.3856 0)
(162.221 -23.6226 0)
(164.673 -25.0727 0)
(173.348 -26.7596 0)
(189.763 -27.7657 0)
(208.94 -29.1475 0)
(220.861 -29.0839 0)
(226.407 -27.8857 0)
(229.329 -24.8943 0)
(229.043 -20.9808 0)
(232.762 -18.0762 0)
(240.949 -14.6028 0)
(243.813 -10.9628 0)
(246.828 -6.88577 0)
(237.428 -2.64057 0)
(196.174 2.58332 0)
(141.954 7.68665 0)
(127.91 10.9606 0)
(127.889 11.5883 0)
(132.224 10.1165 0)
(144.252 7.55937 0)
(158.722 4.03975 0)
(164.505 -0.798509 0)
(167.077 -4.06148 0)
(170.335 -5.02052 0)
(173.347 -3.60672 0)
(177.44 -1.08413 0)
(181.083 2.41927 0)
(187.047 5.75595 0)
(196.655 9.14547 0)
(209.741 12.6584 0)
(221.677 15.2265 0)
(229.333 15.7183 0)
(234.147 14.4602 0)
(238.771 13.01 0)
(246.921 11.3416 0)
(255.993 9.53157 0)
(258.276 7.97279 0)
(258.487 6.20173 0)
(247.15 4.4935 0)
(205.273 1.9858 0)
(162.133 -0.729634 0)
(154.737 -2.72766 0)
(157.99 -4.80888 0)
(166.032 -7.10333 0)
(180.555 -9.9392 0)
(191.581 -12.757 0)
(194.259 -15.7807 0)
(194.689 -19.1424 0)
(193.427 -22.9646 0)
(193.506 -27.0233 0)
(192.046 -30.8222 0)
(193.199 -33.0423 0)
(197.296 -33.8992 0)
(205.112 -32.8654 0)
(216.035 -30.2772 0)
(225.688 -26.3838 0)
(231.526 -22.729 0)
(236.491 -20.0657 0)
(243.158 -17.7628 0)
(248.297 -15.9009 0)
(251.563 -14.5998 0)
(250.944 -13.6773 0)
(240.941 -13.1629 0)
(205.945 -12.5933 0)
(162.272 -11.9617 0)
(150.977 -13.1407 0)
(151.243 -14.3689 0)
(154.178 -16.3514 0)
(163.495 -18.1221 0)
(174.903 -19.6845 0)
(179.164 -20.575 0)
(180.354 -20.3638 0)
(181.654 -19.5511 0)
(182.937 -17.7552 0)
(184.712 -15.2683 0)
(187.15 -12.3166 0)
(191.091 -9.59945 0)
(198.171 -7.21188 0)
(210.876 -5.73667 0)
(227.942 -4.56849 0)
(236.533 -5.55129 0)
(237.67 -8.48208 0)
(238.782 -12.6435 0)
(241.382 -16.9383 0)
(246.595 -20.7535 0)
(252.959 -23.453 0)
(257.14 -24.0267 0)
(256.264 -23.6448 0)
(247.302 -21.3645 0)
(218.925 -16.0002 0)
(171.892 -7.72138 0)
(153.615 -1.73509 0)
(152.967 0.749055 0)
(157.159 3.08287 0)
(166.464 3.75546 0)
(179.855 3.5131 0)
(188.121 2.57297 0)
(189.047 0.990448 0)
(189.184 -0.41873 0)
(189.619 -1.854 0)
(191.524 -3.1357 0)
(195.165 -4.413 0)
(199.89 -7.13751 0)
(206.453 -10.6118 0)
(215.595 -13.8661 0)
(225.161 -16.1256 0)
(231.528 -17.0667 0)
(234.627 -15.9862 0)
(237.817 -14.4081 0)
(241.11 -12.2753 0)
(244.354 -9.8512 0)
(246.576 -7.53721 0)
(246.432 -6.1826 0)
(238.945 -5.51858 0)
(212.984 -5.90743 0)
(173.542 -7.67333 0)
(157.287 -9.99353 0)
(155.469 -12.1451 0)
(158.412 -13.9454 0)
(168.59 -15.4621 0)
(184.396 -15.7931 0)
(194.081 -15.3025 0)
(198.03 -14.1789 0)
(197.681 -12.6286 0)
(193.938 -9.80369 0)
(189.257 -6.46819 0)
(187.801 -3.34147 0)
(189.472 -1.01961 0)
(193.493 0.782921 0)
(199.909 2.27613 0)
(211.321 3.68959 0)
(236.447 4.71747 0)
(-2329.57 -1.93869 0)
(-801.864 14.7394 0)
(-158.619 9.05826 0)
(-262.197 2.97053 0)
(-283.483 -2.85703 0)
(-249.777 -0.0483919 0)
(-193.142 -0.433029 0)
(-114.274 0.502274 0)
(-27.6411 -6.54452 0)
(57.7482 -14.4628 0)
(141.486 -20.9928 0)
(226.137 -27.8801 0)
(308.808 -30.3302 0)
(360.576 -24.4458 0)
(373.72 -16.0895 0)
(372.521 -15.3022 0)
(368.997 -19.8155 0)
(361.976 -23.46 0)
(338.908 -18.4911 0)
(183.886 -1.5461 0)
(-123.395 33.9937 0)
(-176.835 48.9414 0)
(-146.255 55.6924 0)
(-93.6265 60.8235 0)
(-44.1469 65.048 0)
(-8.49565 64.0802 0)
(12.9334 56.3266 0)
(23.9145 43.5268 0)
(38.8151 32.8802 0)
(67.2565 24.9041 0)
(106.2 18.4019 0)
(149.523 12.4304 0)
(189.836 6.1727 0)
(218.927 2.03889 0)
(238.046 0.412892 0)
(257.018 -3.77226 0)
(289.862 -11.5944 0)
(345.136 -19.9223 0)
(386.566 -21.6199 0)
(404.311 -16.3085 0)
(373.409 -9.6384 0)
(181.198 7.53524 0)
(-12.4894 20.0152 0)
(-41.1014 16.8208 0)
(-31.7036 14.557 0)
(-3.84337 13.5816 0)
(24.6233 15.1085 0)
(47.591 16.4382 0)
(65.3302 18.2027 0)
(77.1099 18.9896 0)
(86.5638 18.7632 0)
(98.9359 15.4211 0)
(117.088 10.3419 0)
(141.622 5.73259 0)
(170.038 0.113157 0)
(199.031 -5.76532 0)
(224.616 -11.6842 0)
(242.305 -16.4904 0)
(250.999 -18.7263 0)
(262.53 -22.5426 0)
(294.115 -26.8098 0)
(330.024 -32.6522 0)
(348.827 -32.7921 0)
(326.92 -29.5775 0)
(184.131 -20.5389 0)
(38.4729 -10.3628 0)
(12.2611 -7.5604 0)
(14.8719 -4.59031 0)
(35.6843 -0.563047 0)
(59.2252 4.3026 0)
(78.0847 7.89886 0)
(95.8166 10.5448 0)
(112.072 9.63633 0)
(126.777 7.47594 0)
(138.254 5.7976 0)
(145.761 5.09832 0)
(151.766 8.36993 0)
(160.778 11.2214 0)
(174.277 15.5762 0)
(191.548 19.0554 0)
(208.843 20.2769 0)
(222.851 18.6786 0)
(231.2 13.5888 0)
(247.902 7.68563 0)
(275.917 2.9428 0)
(285.143 1.42086 0)
(292.138 1.76855 0)
(256.949 2.34672 0)
(152.606 4.35396 0)
(94.821 3.41704 0)
(92.0583 -0.30784 0)
(89.4608 -6.11845 0)
(97.4441 -10.1191 0)
(109.769 -11.2515 0)
(122.026 -9.02776 0)
(134.585 -6.94714 0)
(148.886 -5.79004 0)
(163.557 -4.13441 0)
(173.796 -2.38635 0)
(179.107 -1.04513 0)
(181.848 -1.81769 0)
(186.322 -2.48983 0)
(194.654 -5.61872 0)
(206.002 -7.46047 0)
(219.382 -8.37528 0)
(235.415 -9.25291 0)
(256.6 -10.1317 0)
(281.064 -11.5578 0)
(288.251 -12.8525 0)
(283.532 -13.2433 0)
(251.452 -13.1693 0)
(160.038 -12.4599 0)
(102.015 -11.1072 0)
(94.1978 -10.5813 0)
(95.1627 -10.4964 0)
(106.443 -9.67143 0)
(122.91 -9.94543 0)
(135.362 -8.64594 0)
(144.815 -6.02515 0)
(154.467 -3.14128 0)
(164.084 -1.95712 0)
(173.944 -1.14164 0)
(184.564 -1.86145 0)
(196.307 -3.54251 0)
(209.153 -4.93909 0)
(219.325 -6.87307 0)
(225.818 -7.86122 0)
(231.523 -6.45201 0)
(237.716 -3.77019 0)
(242.711 -1.97365 0)
(250.284 -1.68025 0)
(253.863 -4.07837 0)
(247.931 -6.17477 0)
(235.613 -6.41979 0)
(187.346 -4.61012 0)
(123.581 -0.280145 0)
(107.948 3.96386 0)
(113.639 7.64876 0)
(122.795 13.4456 0)
(138.903 19.8129 0)
(152.594 26.643 0)
(159.126 30.6455 0)
(162.553 31.708 0)
(165.092 29.887 0)
(167.983 27.3722 0)
(173.748 23.6829 0)
(183.837 18.9537 0)
(198.117 14.3685 0)
(208.711 8.00422 0)
(214.384 3.30681 0)
(214.36 0.397253 0)
(213.779 -0.015797 0)
(213.524 0.294335 0)
(219.67 -0.102741 0)
(234.445 -2.33587 0)
(242.123 -7.75288 0)
(245.78 -13.0112 0)
(235.585 -17.5365 0)
(190.457 -20.8708 0)
(134.992 -23.4414 0)
(123.712 -26.7551 0)
(124.16 -28.8748 0)
(134.147 -29.9643 0)
(152.233 -30.623 0)
(166.093 -28.9366 0)
(170.31 -25.7236 0)
(169.762 -23.566 0)
(165.465 -22.8903 0)
(161.574 -22.9109 0)
(162.22 -23.7976 0)
(170.646 -23.9742 0)
(188.273 -24.6868 0)
(208.793 -26.2986 0)
(221.892 -26.6258 0)
(229.532 -26.5737 0)
(233.616 -25.2264 0)
(234.359 -22.8217 0)
(237.441 -20.6144 0)
(245.573 -18.4656 0)
(250.816 -14.7853 0)
(253.934 -10.2559 0)
(246.142 -7.33886 0)
(206.38 -2.01097 0)
(148.469 4.03887 0)
(131.757 7.44822 0)
(128.303 8.28741 0)
(129.586 6.49642 0)
(139.943 3.90163 0)
(154.114 0.655272 0)
(159.806 -2.83159 0)
(165.428 -3.94148 0)
(171.318 -3.19018 0)
(176.769 -1.15232 0)
(182.119 0.764751 0)
(187.822 2.19803 0)
(193.432 5.24199 0)
(201.471 8.71086 0)
(212.875 11.8794 0)
(223.183 14.3495 0)
(229.27 14.8195 0)
(232.732 14.0564 0)
(236.607 12.9489 0)
(244.39 11.2653 0)
(253.122 9.51102 0)
(255.645 7.70368 0)
(255.946 5.66476 0)
(244.083 3.37949 0)
(201.733 1.2923 0)
(159.191 -0.707855 0)
(151.841 -2.5393 0)
(154.279 -4.36452 0)
(161.627 -6.96653 0)
(175.687 -10.179 0)
(187.067 -14.2083 0)
(189.566 -18.6314 0)
(188.266 -22.729 0)
(187.133 -27.429 0)