/*--------------------------------*- C++ -*----------------------------------*\
| =========                 |                                                 |
| \\      /  F ield         | OpenFOAM: The Open Source CFD Toolbox           |
|  \\    /   O peration     | Version:  2306                                  |
|   \\  /    A nd           | Website:  www.openfoam.com                      |
|    \\/     M anipulation  |                                                 |
\*---------------------------------------------------------------------------*/
FoamFile
{
    version     2.0;
    format      ascii;
    arch        "LSB;label=32;scalar=64";
    class       volVectorField;
    location    "0.18";
    object      U;
}
// * * * * * * * * * * * * * * * * * * * * * * * * * * * * * * * * * * * * * //

dimensions      [0 1 -1 0 0 0 0];

internalField   nonuniform List<vector> 
6000
(
(500 5.49545e-14 0)
(500 7.17386e-14 0)
(500 4.36044e-14 0)
(500 2.69256e-14 0)
(500 2.67169e-15 0)
(500 -1.08027e-13 0)
(500 -1.0798e-13 0)
(500 -1.52194e-13 0)
(500 -9.48435e-14 0)
(500 -1.12171e-13 0)
(500 -1.14739e-13 0)
(500 -1.3307e-13 0)
(500 -1.24692e-14 0)
(500 1.28993e-14 0)
(500 -3.72007e-14 0)
(500 -8.89099e-14 0)
(500 -2.05837e-13 0)
(500 -7.20748e-14 0)
(500 -8.28122e-14 0)
(500 -1.55808e-13 0)
(500 -1.1712e-13 0)
(500 -5.12791e-14 0)
(500 5.50366e-15 0)
(500 6.06409e-14 0)
(500 1.52551e-13 0)
(500 1.28727e-13 0)
(500 1.1392e-13 0)
(500 2.15317e-13 0)
(500 1.5364e-13 0)
(500 1.68803e-13 0)
(500 1.72626e-13 0)
(500 3.99146e-14 0)
(500 8.57163e-14 0)
(500 5.60239e-14 0)
(500 3.832e-14 0)
(500 7.19648e-14 0)
(500 9.37186e-14 0)
(500 7.34696e-14 0)
(500 1.11238e-13 0)
(500 1.40265e-13 0)
(500 -2.66667e-14 0)
(500 -6.759e-14 0)
(500 -1.3537e-14 0)
(500 6.88671e-14 0)
(500 2.30446e-14 0)
(500 -1.01445e-13 0)
(500 -1.69843e-13 0)
(500 1.11575e-14 0)
(500 -1.09657e-13 0)
(500 -4.19016e-14 0)
(500 -5.15346e-14 0)
(500 2.58673e-14 0)
(500 -4.32525e-14 0)
(500 -2.15378e-14 0)
(500 2.08491e-13 0)
(500 2.23617e-13 0)
(500 3.85523e-14 0)
(500 5.8203e-14 0)
(500 -7.78155e-14 0)
(500 -3.29615e-14 0)
(500 1.07185e-14 0)
(500 -1.45995e-13 0)
(500 -5.70927e-14 0)
(500 -1.24521e-13 0)
(500 -4.58141e-14 0)
(500 1.3875e-14 0)
(500 -6.14619e-14 0)
(500 1.0634e-15 0)
(500 3.26071e-14 0)
(500 -1.29712e-14 0)
(500 5.30222e-14 0)
(500 2.74854e-14 0)
(500 -1.80529e-13 0)
(500 -1.60238e-13 0)
(500 -3.60203e-13 0)
(500 8.74027e-13 0)
(500 1.73151e-12 0)
(500 -2.99641e-11 0)
(500 1.37409e-10 0)
(500 -3.26928e-10 0)
(500 2.12803e-10 0)
(500 2.43598e-09 0)
(500 -1.00841e-08 0)
(500 2.34828e-08 0)
(500 6.69484e-10 0)
(500 -1.15847e-07 0)
(500 4.02404e-07 0)
(499.999 -1.15273e-07 0)
(499.998 -1.68574e-06 0)
(499.996 7.69962e-06 0)
(499.991 -1.20557e-05 0)
(499.982 1.45297e-06 0)
(499.963 5.81013e-05 0)
(499.929 -0.000124848 0)
(499.868 0.000118253 0)
(499.771 0.0002257 0)
(499.633 -0.00060175 0)
(499.491 0.000659035 0)
(499.414 0.000327642 0)
(499.405 -7.28917e-05 0)
(499.41 -0.000105091 0)
(499.433 -0.000122275 0)
(499.49 -1.48777e-05 0)
(499.593 -2.25605e-06 0)
(499.747 -0.000215877 0)
(499.95 0.00052558 0)
(500.191 0.000660261 0)
(500.46 -0.000981335 0)
(500.744 -0.000562629 0)
(501.034 0.00194706 0)
(501.325 0.00101111 0)
(501.616 -0.00251913 0)
(501.901 -0.000799636 0)
(502.177 0.00445778 0)
(502.445 0.00280388 0)
(502.709 -0.00354668 0)
(502.966 -0.00342258 0)
(503.21 0.00359966 0)
(503.439 0.00544451 0)
(503.66 -0.00196863 0)
(503.87 -0.00479049 0)
(504.063 0.0013403 0)
(504.232 0.00644216 0)
(504.386 0.000681655 0)
(504.524 -0.00506901 0)
(504.644 -0.00277429 0)
(504.743 0.00333708 0)
(504.825 0.00374047 0)
(504.9 -0.000885616 0)
(504.967 -0.00268194 0)
(505.027 -0.000829818 0)
(505.08 0.00196035 0)
(505.129 0.00109417 0)
(505.178 -0.00171227 0)
(505.227 -0.00155224 0)
(505.27 -6.67987e-05 0)
(505.297 0.000757599 0)
(505.307 0.000869493 0)
(505.309 0.000268722 0)
(505.311 -0.000676708 0)
(505.311 -0.000666897 0)
(505.309 -0.000302377 0)
(505.303 0.000221529 0)
(505.294 0.000352408 0)
(505.283 0.000232102 0)
(505.269 8.43746e-07 0)
(505.252 -0.000218284 0)
(505.233 -0.000253087 0)
(505.212 -0.000137289 0)
(505.19 -0.000101681 0)
(505.17 -4.48735e-05 0)
(505.155 7.72437e-05 0)
(505.144 0.00014566 0)
(505.136 0.000134421 0)
(505.13 7.60558e-05 0)
(505.127 -5.63064e-05 0)
(505.125 -0.000131919 0)
(505.122 -0.000115742 0)
(505.119 -7.00601e-05 0)
(505.115 3.17559e-05 0)
(505.111 0.000124264 0)
(505.11 0.00012686 0)
(505.109 0.000104363 0)
(505.109 5.13583e-05 0)
(505.111 -3.60111e-05 0)
(505.113 -6.97324e-05 0)
(505.114 -5.77355e-05 0)
(505.116 -2.60905e-05 0)
(505.117 3.28235e-05 0)
(505.119 6.13151e-05 0)
(505.124 3.70599e-05 0)
(505.131 1.3733e-05 0)
(505.14 -3.85347e-05 0)
(505.15 -7.89452e-05 0)
(505.16 -7.48426e-05 0)
(505.171 -4.03303e-05 0)
(505.18 8.12213e-06 0)
(505.187 5.62995e-05 0)
(505.194 5.46622e-05 0)
(505.199 4.61706e-05 0)
(505.201 4.53869e-05 0)
(505.203 2.75902e-05 0)
(505.204 5.85028e-07 0)
(505.204 -1.20767e-05 0)
(505.203 -2.17914e-05 0)
(505.2 -2.06677e-05 0)
(505.197 -1.12391e-05 0)
(505.194 -9.05177e-06 0)
(505.189 -5.36599e-06 0)
(505.184 -6.70804e-07 0)
(505.179 -7.20518e-07 0)
(505.173 -8.39925e-06 0)
(505.166 -1.26108e-05 0)
(505.16 -2.20907e-05 0)
(505.155 -3.53581e-05 0)
(505.151 -3.51985e-05 0)
(505.148 -2.07227e-05 0)
(505.146 2.49329e-06 0)
(505.145 2.93455e-05 0)
(505.144 4.12897e-05 0)
(505.142 3.54087e-05 0)
(505.14 2.2178e-05 0)
(505.136 5.47653e-07 0)
(505.132 -1.46202e-05 0)
(505.127 -1.63852e-05 0)
(505.122 -1.45407e-05 0)
(505.118 -7.72666e-06 0)
(505.117 1.08815e-05 0)
(505.117 2.9623e-05 0)
(505.117 3.5569e-05 0)
(505.118 3.44507e-05 0)
(505.119 -2.1351e-06 0)
(505.121 -3.84324e-05 0)
(505.126 -5.03344e-05 0)
(505.133 -4.40927e-05 0)
(505.141 -3.79672e-05 0)
(505.151 -1.81969e-05 0)
(505.16 2.76895e-05 0)
(505.169 5.68965e-05 0)
(505.175 6.81562e-05 0)
(505.18 6.53244e-05 0)
(505.184 3.17685e-05 0)
(505.188 1.07007e-05 0)
(505.192 -1.49409e-05 0)
(505.196 -3.79636e-05 0)
(505.199 -2.97868e-05 0)
(505.2 -7.97744e-06 0)
(505.2 2.06869e-05 0)
(505.199 3.85555e-05 0)
(505.199 2.72925e-05 0)
(505.198 7.093e-06 0)
(505.196 -3.30249e-05 0)
(505.195 -6.86343e-05 0)
(505.192 -9.04249e-05 0)
(505.187 -7.80947e-05 0)
(505.181 -5.66957e-05 0)
(505.174 -1.17446e-05 0)
(505.167 3.13216e-05 0)
(505.161 4.08996e-05 0)
(505.156 3.79394e-05 0)
(505.152 1.99728e-06 0)
(505.15 -2.61056e-05 0)
(505.148 9.34502e-06 0)
(505.147 2.37035e-05 0)
(505.145 4.49433e-05 0)
(505.144 5.90038e-05 0)
(505.142 5.38729e-05 0)
(505.141 3.17872e-05 0)
(505.14 -2.84865e-05 0)
(505.139 -9.03083e-05 0)
(505.136 -0.00010337 0)
(505.133 -9.64863e-05 0)
(505.128 -5.20596e-05 0)
(505.122 2.72461e-05 0)
(505.116 6.39924e-05 0)
(505.113 6.20867e-05 0)
(505.112 2.93742e-05 0)
(505.112 -3.25483e-05 0)
(505.114 -7.45851e-05 0)
(505.116 -6.9117e-05 0)
(505.119 -3.1668e-05 0)
(505.124 3.35222e-05 0)
(505.131 7.78207e-05 0)
(505.14 0.000120328 0)
(505.15 0.000130881 0)
(505.162 5.05657e-05 0)
(505.172 -4.23081e-05 0)
(505.18 -0.000104299 0)
(505.186 -0.000103094 0)
(505.189 -5.59576e-05 0)
(505.189 7.09416e-05 0)
(505.191 0.000147913 0)
(505.193 0.000155054 0)
(505.196 0.000148977 0)
(505.199 3.90374e-05 0)
(505.202 -0.000104827 0)
(505.204 -0.000175272 0)
(505.205 -0.000174223 0)
(505.205 -0.0001469 0)
(505.203 -4.23846e-05 0)
(505.2 0.000115305 0)
(505.197 0.000152274 0)
(505.193 0.000153233 0)
(505.188 0.000122914 0)
(505.183 1.53783e-05 0)
(505.178 -7.36277e-05 0)
(505.17 -9.22505e-05 0)
(505.163 -8.36632e-05 0)
(505.156 -1.88701e-05 0)
(505.151 5.62732e-05 0)
(505.148 5.69529e-05 0)
(505.146 5.67833e-05 0)
(505.145 -1.73182e-05 0)
(505.146 -0.000156613 0)
(505.146 -0.000218352 0)
(505.145 -0.00023159 0)
(505.143 -0.000223672 0)
(505.14 -7.04152e-05 0)
(505.137 0.000129827 0)
(505.131 0.000160787 0)
(500 2.48226e-14 0)
(500 -2.92561e-15 0)
(500 3.12447e-14 0)
(500 -4.74474e-14 0)
(500 -9.77331e-14 0)
(500 -2.61512e-13 0)
(500 -1.97567e-13 0)
(500 -2.42147e-13 0)
(500 -3.28941e-13 0)
(500 -2.50352e-13 0)
(500 -2.91666e-13 0)
(500 -3.15611e-13 0)
(500 -2.19629e-13 0)
(500 -1.6299e-13 0)
(500 -2.62631e-13 0)
(500 -2.93305e-13 0)
(500 -2.50114e-13 0)
(500 -1.16229e-13 0)
(500 -1.14121e-13 0)
(500 -2.42997e-13 0)
(500 -7.87435e-14 0)
(500 -6.81245e-14 0)
(500 3.47673e-14 0)
(500 1.25766e-13 0)
(500 3.56163e-13 0)
(500 1.52924e-13 0)
(500 2.10133e-13 0)
(500 3.42428e-13 0)
(500 2.67927e-13 0)
(500 3.07886e-13 0)
(500 3.04931e-13 0)
(500 2.0642e-13 0)
(500 2.76543e-13 0)
(500 2.64853e-13 0)
(500 2.5256e-13 0)
(500 2.76468e-13 0)
(500 5.69334e-14 0)
(500 6.72882e-14 0)
(500 5.67354e-14 0)
(500 2.04894e-14 0)
(500 -2.60898e-13 0)
(500 -2.10901e-13 0)
(500 -2.40585e-14 0)
(500 9.99314e-14 0)
(500 5.97217e-14 0)
(500 -2.06964e-13 0)
(500 -2.28746e-13 0)
(500 -1.63749e-13 0)
(500 -3.07731e-13 0)
(500 -1.81837e-13 0)
(500 -1.91071e-13 0)
(500 1.00513e-13 0)
(500 8.72507e-14 0)
(500 1.40017e-13 0)
(500 1.9558e-13 0)
(500 2.41944e-13 0)
(500 1.61446e-13 0)
(500 2.37151e-13 0)
(500 -1.24145e-13 0)
(500 6.90907e-15 0)
(500 -5.25193e-14 0)
(500 -2.93518e-13 0)
(500 -2.01021e-13 0)
(500 -2.54182e-13 0)
(500 -1.79719e-13 0)
(500 7.37666e-14 0)
(500 5.82664e-14 0)
(500 5.43113e-14 0)
(500 1.22844e-13 0)
(500 8.61951e-14 0)
(500 2.17412e-13 0)
(500 1.66406e-13 0)
(500 1.43869e-13 0)
(500 -7.53564e-14 0)
(500 3.09647e-13 0)
(500 7.13831e-13 0)
(500 3.09326e-12 0)
(500 -3.78523e-11 0)
(500 1.75971e-10 0)
(500 -4.32549e-10 0)
(500 2.06485e-11 0)
(500 3.98415e-09 0)
(500 -1.64456e-08 0)
(500 2.84303e-08 0)
(500 1.68682e-08 0)
(500 -2.44966e-07 0)
(500 6.50151e-07 0)
(499.999 -4.37202e-07 0)
(499.998 -2.65474e-06 0)
(499.996 1.01377e-05 0)
(499.991 -1.41558e-05 0)
(499.982 -1.0923e-05 0)
(499.963 9.40109e-05 0)
(499.929 -0.000180484 0)
(499.868 5.09231e-05 0)
(499.771 0.000489983 0)
(499.633 -0.00104836 0)
(499.491 0.000499683 0)
(499.414 0.00057696 0)
(499.405 -0.000118734 0)
(499.41 -0.000179945 0)
(499.433 -0.000184467 0)
(499.489 -0.000103922 0)
(499.593 -0.000109589 0)
(499.747 -5.4977e-06 0)
(499.95 0.00079612 0)
(500.192 0.000186407 0)
(500.46 -0.00128943 0)
(500.744 5.83846e-05 0)
(501.034 0.00201311 0)
(501.326 -0.000562747 0)
(501.616 -0.00338787 0)
(501.9 0.000443481 0)
(502.176 0.00515642 0)
(502.447 0.00131165 0)
(502.711 -0.00531722 0)
(502.966 -0.00317192 0)
(503.208 0.0051157 0)
(503.44 0.00451974 0)
(503.663 -0.00353935 0)
(503.87 -0.00512219 0)
(504.06 0.00327705 0)
(504.232 0.00680095 0)
(504.389 -2.32465e-05 0)
(504.525 -0.00671487 0)
(504.643 -0.0031412 0)
(504.743 0.00399016 0)
(504.827 0.00414809 0)
(504.902 -0.000489024 0)
(504.968 -0.00267891 0)
(505.026 -0.000480912 0)
(505.079 0.0021158 0)
(505.13 0.000933696 0)
(505.18 -0.00229551 0)
(505.228 -0.00239928 0)
(505.27 0.000145308 0)
(505.297 0.00157005 0)
(505.308 0.00169193 0)
(505.309 0.000819102 0)
(505.311 -0.000725102 0)
(505.31 -0.0010402 0)
(505.308 -0.000663389 0)
(505.303 0.000176662 0)
(505.295 0.000651664 0)
(505.284 0.000568529 0)
(505.269 0.000343557 0)
(505.251 0.000126901 0)
(505.232 -0.000308851 0)
(505.211 -0.000533082 0)
(505.19 -0.000539501 0)
(505.171 -0.000431637 0)
(505.155 -0.000132009 0)
(505.144 0.0002621 0)
(505.136 0.000398827 0)
(505.13 0.000413807 0)
(505.126 0.000207753 0)
(505.125 -0.000237512 0)
(505.122 -0.000305509 0)
(505.118 -0.000306921 0)
(505.115 -0.000273432 0)
(505.112 -3.72148e-05 0)
(505.11 0.000212097 0)
(505.109 0.000299098 0)
(505.109 0.000455169 0)
(505.111 0.000373543 0)
(505.113 3.44828e-05 0)
(505.114 -7.26878e-05 0)
(505.116 -0.000244213 0)
(505.117 -0.000296031 0)
(505.119 -9.03208e-05 0)
(505.124 3.18382e-05 0)
(505.131 9.74209e-05 0)
(505.14 0.000155036 0)
(505.15 4.27477e-05 0)
(505.16 -5.67416e-05 0)
(505.171 -0.000169984 0)
(505.18 -0.000259417 0)
(505.187 -0.00013913 0)
(505.194 -3.18551e-05 0)
(505.199 6.78015e-06 0)
(505.202 0.000138918 0)
(505.203 0.000205059 0)
(505.204 0.000127136 0)
(505.204 5.8238e-05 0)
(505.203 -2.86659e-05 0)
(505.2 -0.000120127 0)
(505.197 -0.000116735 0)
(505.194 -8.86514e-05 0)
(505.189 -1.16711e-05 0)
(505.184 9.72996e-05 0)
(505.179 0.000154002 0)
(505.173 0.000113904 0)
(505.166 7.87162e-05 0)
(505.16 -1.90676e-05 0)
(505.155 -0.000151966 0)
(505.151 -0.000192448 0)
(505.148 -0.000175965 0)
(505.146 -0.000114486 0)
(505.145 3.74662e-05 0)
(505.144 0.000150029 0)
(505.142 0.000158544 0)
(505.14 0.000150611 0)
(505.136 8.57748e-05 0)
(505.132 -2.54867e-05 0)
(505.127 -5.79082e-05 0)
(505.122 -9.79695e-05 0)
(505.118 -0.000142482 0)
(505.117 -2.31391e-05 0)
(505.117 7.67483e-05 0)
(505.117 0.000108763 0)
(505.118 0.000138559 0)
(505.119 0.000115366 0)
(505.121 9.96508e-07 0)
(505.126 -7.45691e-05 0)
(505.133 -0.000116663 0)
(505.141 -0.000140555 0)
(505.151 -0.000140493 0)
(505.161 -7.71647e-05 0)
(505.169 1.45737e-05 0)
(505.176 0.000122986 0)
(505.18 0.000228167 0)
(505.184 0.000190109 0)
(505.188 0.000143522 0)
(505.192 3.79311e-05 0)
(505.196 -0.000102201 0)
(505.199 -0.000169161 0)
(505.2 -0.000147306 0)
(505.2 -5.3277e-05 0)
(505.2 9.47887e-05 0)
(505.199 0.000137848 0)
(505.198 0.000138778 0)
(505.196 0.000140308 0)
(505.194 7.29017e-06 0)
(505.192 -0.000218481 0)
(505.187 -0.000291743 0)
(505.181 -0.000295143 0)
(505.175 -0.000248562 0)
(505.167 -6.51123e-05 0)
(505.161 9.39432e-05 0)
(505.156 0.000158219 0)
(505.152 0.000157783 0)
(505.15 -4.68289e-05 0)
(505.148 -5.75399e-05 0)
(505.147 -7.94711e-06 0)
(505.145 5.94357e-05 0)
(505.144 0.000143105 0)
(505.142 0.000215731 0)
(505.141 0.000239626 0)
(505.14 0.000205545 0)
(505.138 -4.55596e-05 0)
(505.136 -0.000279624 0)
(505.133 -0.000333133 0)
(505.128 -0.000334675 0)
(505.122 -0.000166196 0)
(505.116 4.41982e-05 0)
(505.113 0.000198412 0)
(505.112 0.000207561 0)
(505.112 0.000141376 0)
(505.114 -9.92833e-05 0)
(505.116 -0.000171527 0)
(505.119 -0.000195855 0)
(505.124 -0.000167787 0)
(505.131 9.40925e-06 0)
(505.14 0.000246898 0)
(505.15 0.000424672 0)
(505.162 0.000382758 0)
(505.172 0.000240557 0)
(505.18 -8.33108e-05 0)
(505.186 -0.000329656 0)
(505.189 -0.00044908 0)
(505.19 -0.000315176 0)
(505.191 6.93855e-05 0)
(505.193 0.000300136 0)
(505.196 0.000429256 0)
(505.199 0.000481075 0)
(505.202 0.000234369 0)
(505.204 -0.000104291 0)
(505.205 -0.000384197 0)
(505.205 -0.000529608 0)
(505.203 -0.000613733 0)
(505.2 -0.000269785 0)
(505.197 9.71581e-05 0)
(505.193 0.000294033 0)
(505.188 0.000512473 0)
(505.183 0.000522616 0)
(505.177 0.00013034 0)
(505.17 -0.000181019 0)
(505.163 -0.000262329 0)
(505.156 -0.000242343 0)
(505.151 -5.02338e-05 0)
(505.148 0.000156203 0)
(505.146 0.000283991 0)
(505.145 0.000366428 0)
(505.145 0.000156402 0)
(505.145 -0.00025994 0)
(505.144 -0.000508237 0)
(505.142 -0.000674153 0)
(505.14 -0.000748037 0)
(505.137 -0.000381056 0)
(505.131 -4.08825e-06 0)
(500 -3.27228e-14 0)
(500 -3.61576e-14 0)
(500 -1.03028e-13 0)
(500 -9.97043e-14 0)
(500 -1.83407e-13 0)
(500 -2.82388e-13 0)
(500 -2.88174e-13 0)
(500 -3.09795e-13 0)
(500 -4.69621e-13 0)
(500 -3.30077e-13 0)
(500 -3.76886e-13 0)
(500 -4.1228e-13 0)
(500 -3.93645e-13 0)
(500 -4.72834e-13 0)
(500 -5.15145e-13 0)
(500 -4.93751e-13 0)
(500 -3.15439e-13 0)
(500 -3.58281e-13 0)
(500 -4.51312e-13 0)
(500 -4.33115e-13 0)
(500 -1.78032e-14 0)
(500 1.61876e-14 0)
(500 1.17941e-13 0)
(500 1.60423e-13 0)
(500 2.30642e-13 0)
(500 2.43621e-13 0)
(500 3.85886e-13 0)
(500 3.73888e-13 0)
(500 4.19798e-13 0)
(500 4.19801e-13 0)
(500 4.03187e-13 0)
(500 4.7245e-13 0)
(500 4.56907e-13 0)
(500 4.10573e-13 0)
(500 4.12775e-13 0)
(500 3.29211e-13 0)
(500 8.95026e-14 0)
(500 6.62844e-14 0)
(500 3.433e-14 0)
(500 -4.30145e-14 0)
(500 -2.52704e-13 0)
(500 -2.14366e-13 0)
(500 -7.29578e-14 0)
(500 -1.53579e-13 0)
(500 -2.14254e-13 0)
(500 -1.95342e-13 0)
(500 -9.39325e-14 0)
(500 -2.43256e-13 0)
(500 -3.79418e-13 0)
(500 -3.59894e-13 0)
(500 -3.24098e-13 0)
(500 -1.24138e-13 0)
(500 1.3501e-13 0)
(500 1.93466e-13 0)
(500 1.28033e-13 0)
(500 1.49862e-13 0)
(500 1.84588e-14 0)
(500 -8.94477e-14 0)
(500 -2.21448e-13 0)
(500 -1.87881e-13 0)
(500 -2.52226e-13 0)
(500 -3.58698e-13 0)
(500 -4.75819e-13 0)
(500 -3.62442e-13 0)
(500 -3.15382e-13 0)
(500 1.45487e-13 0)
(500 1.72178e-13 0)
(500 2.09617e-13 0)
(500 2.37002e-13 0)
(500 3.4008e-13 0)
(500 4.43227e-13 0)
(500 3.62508e-13 0)
(500 5.42319e-13 0)
(500 -1.23504e-13 0)
(500 7.17825e-13 0)
(500 1.12938e-12 0)
(500 2.16632e-12 0)
(500 -4.59536e-11 0)
(500 2.43454e-10 0)
(500 -6.36722e-10 0)
(500 2.77827e-10 0)
(500 4.85886e-09 0)
(500 -2.17043e-08 0)
(500 4.22131e-08 0)
(500 1.07854e-08 0)
(500 -3.15683e-07 0)
(500 9.02898e-07 0)
(499.999 -7.00137e-07 0)
(499.998 -3.33892e-06 0)
(499.996 1.34415e-05 0)
(499.991 -1.88711e-05 0)
(499.982 -1.31423e-05 0)
(499.963 0.000116184 0)
(499.929 -0.000206374 0)
(499.868 1.13504e-05 0)
(499.771 0.00071326 0)
(499.633 -0.001313 0)
(499.491 0.000445274 0)
(499.415 0.000758963 0)
(499.405 9.20572e-05 0)
(499.41 -0.000261071 0)
(499.433 -0.000291561 0)
(499.489 -0.000169538 0)
(499.593 -0.000260223 0)
(499.747 0.000163677 0)
(499.95 0.00109883 0)
(500.192 -0.000299437 0)
(500.46 -0.00156585 0)
(500.744 0.00122671 0)
(501.034 0.00219548 0)
(501.327 -0.00252206 0)
(501.616 -0.00405937 0)
(501.899 0.00294834 0)
(502.175 0.00599757 0)
(502.448 -0.0011165 0)
(502.712 -0.00703532 0)
(502.965 -0.000996667 0)
(503.207 0.00696697 0)
(503.441 0.002465 0)
(503.663 -0.00632853 0)
(503.87 -0.00425455 0)
(504.059 0.0064674 0)
(504.232 0.00667632 0)
(504.39 -0.0024558 0)
(504.525 -0.00780041 0)
(504.643 -0.0017825 0)
(504.742 0.00519116 0)
(504.828 0.00354478 0)
(504.903 -0.00152308 0)
(504.968 -0.00278375 0)
(505.026 0.000675465 0)
(505.079 0.00261862 0)
(505.13 0.000144647 0)
(505.18 -0.00317081 0)
(505.228 -0.00250151 0)
(505.271 0.00102264 0)
(505.298 0.00235805 0)
(505.308 0.00206715 0)
(505.31 0.000660156 0)
(505.311 -0.00130638 0)
(505.31 -0.00160052 0)
(505.308 -0.00100477 0)
(505.304 4.27569e-05 0)
(505.296 0.00068108 0)
(505.285 0.000657507 0)
(505.27 0.000450134 0)
(505.252 0.000382409 0)
(505.231 0.00010159 0)
(505.211 -0.000710922 0)
(505.19 -0.000837929 0)
(505.171 -0.000723511 0)
(505.156 -0.000290018 0)
(505.144 0.000271001 0)
(505.136 0.000479913 0)
(505.13 0.000519879 0)
(505.127 0.000374358 0)
(505.124 -0.00014948 0)
(505.121 -0.00040906 0)
(505.118 -0.000392299 0)
(505.115 -0.00029319 0)
(505.112 -9.25469e-05 0)
(505.11 0.000156581 0)
(505.11 0.000252758 0)
(505.11 0.000425041 0)
(505.11 0.000456928 0)
(505.112 0.000171437 0)
(505.113 1.34659e-05 0)
(505.115 -0.000151019 0)
(505.117 -0.000249721 0)
(505.12 -0.00014785 0)
(505.125 -6.94761e-05 0)
(505.132 -2.3387e-05 0)
(505.14 5.86764e-05 0)
(505.15 1.81704e-05 0)
(505.16 -4.78875e-05 0)
(505.17 -0.000183573 0)
(505.18 -0.000283196 0)
(505.188 -0.000148128 0)
(505.195 -4.71363e-05 0)
(505.2 -3.21712e-05 0)
(505.202 5.5947e-05 0)
(505.203 0.000205396 0)
(505.204 0.000171074 0)
(505.203 0.000131104 0)
(505.202 6.03937e-05 0)
(505.2 -7.98903e-05 0)
(505.197 -0.000153223 0)
(505.194 -0.000137729 0)
(505.19 -5.56601e-05 0)
(505.185 7.54745e-05 0)
(505.179 0.000151678 0)
(505.173 0.000140601 0)
(505.166 0.000121788 0)
(505.16 3.79349e-05 0)
(505.155 -0.000128689 0)
(505.151 -0.000239952 0)
(505.148 -0.000251684 0)
(505.146 -0.000204413 0)
(505.145 -1.26943e-05 0)
(505.144 0.000130445 0)
(505.142 0.000152201 0)
(505.139 0.000157077 0)
(505.136 0.000105808 0)
(505.132 3.00187e-05 0)
(505.127 -7.83192e-08 0)
(505.122 -3.56874e-05 0)
(505.118 -0.000136341 0)
(505.117 -4.17747e-05 0)
(505.117 3.04104e-05 0)
(505.117 7.22622e-05 0)
(505.118 0.000105357 0)
(505.119 8.80354e-05 0)
(505.121 2.39393e-05 0)
(505.126 -6.56822e-05 0)
(505.132 -0.000109937 0)
(505.141 -0.000157845 0)
(505.151 -0.000122313 0)
(505.161 -8.29513e-05 0)
(505.169 -5.09937e-05 0)
(505.176 4.98282e-05 0)
(505.18 0.000235468 0)
(505.184 0.000238956 0)
(505.188 0.000175851 0)
(505.192 5.42802e-05 0)
(505.196 -0.000110308 0)
(505.199 -0.000188782 0)
(505.2 -0.000135242 0)
(505.201 -3.60252e-05 0)
(505.2 0.000107609 0)
(505.199 0.000198882 0)
(505.198 0.000189621 0)
(505.196 0.000154466 0)
(505.194 4.16293e-05 0)
(505.191 -0.000232554 0)
(505.187 -0.000389569 0)
(505.181 -0.000355189 0)
(505.175 -0.000300987 0)
(505.168 -0.000145354 0)
(505.161 7.00273e-05 0)
(505.156 0.000168681 0)
(505.152 0.000208489 0)
(505.15 6.20936e-05 0)
(505.148 -5.29162e-05 0)
(505.147 2.34871e-06 0)
(505.145 4.93141e-05 0)
(505.144 0.000132825 0)
(505.143 0.00023371 0)
(505.141 0.000273455 0)
(505.14 0.000241468 0)
(505.138 9.50137e-05 0)
(505.136 -0.000209343 0)
(505.133 -0.000374634 0)
(505.128 -0.000398105 0)
(505.122 -0.000300337 0)
(505.117 -6.02178e-05 0)
(505.113 0.000159325 0)
(505.112 0.000190867 0)
(505.112 0.000184461 0)
(505.113 1.13504e-05 0)
(505.116 -0.000162807 0)
(505.119 -0.000185299 0)
(505.124 -0.000178665 0)
(505.131 -0.000116158 0)
(505.14 9.16318e-05 0)
(505.151 0.000374439 0)
(505.162 0.000521946 0)
(505.172 0.000288101 0)
(505.18 4.0488e-05 0)
(505.185 -0.000290827 0)
(505.188 -0.00043954 0)
(505.19 -0.000426789 0)
(505.191 -0.000113333 0)
(505.193 0.000216911 0)
(505.196 0.000435699 0)
(505.199 0.000496818 0)
(505.202 0.000360157 0)
(505.204 0.000132573 0)
(505.204 -0.000187739 0)
(505.204 -0.000567364 0)
(505.203 -0.000749318 0)
(505.201 -0.000621286 0)
(505.198 -0.000154731 0)
(505.194 0.000209739 0)
(505.189 0.000501294 0)
(505.183 0.000692432 0)
(505.177 0.000517562 0)
(505.17 5.44293e-05 0)
(505.163 -0.000224028 0)
(505.156 -0.00027296 0)
(505.152 -0.000206008 0)
(505.148 -2.79246e-05 0)
(505.147 0.000183738 0)
(505.146 0.000325317 0)
(505.145 0.000309357 0)
(505.145 1.76942e-05 0)
(505.144 -0.000410102 0)
(505.142 -0.000581663 0)
(505.14 -0.000715061 0)
(505.137 -0.000719716 0)
(505.132 -0.000343194 0)
(500 -5.25991e-14 0)
(500 2.71141e-14 0)
(500 -1.11918e-13 0)
(500 -1.79409e-13 0)
(500 -2.32376e-13 0)
(500 -4.6001e-13 0)
(500 -5.28989e-13 0)
(500 -4.40348e-13 0)
(500 -3.96728e-13 0)
(500 -3.929e-13 0)
(500 -5.23888e-13 0)
(500 -4.40031e-13 0)
(500 -5.57895e-13 0)
(500 -6.39718e-13 0)
(500 -4.94665e-13 0)
(500 -4.76944e-13 0)
(500 -4.80201e-13 0)
(500 -4.82244e-13 0)
(500 -5.52855e-13 0)
(500 -5.49826e-13 0)
(500 4.28994e-14 0)
(500 8.93398e-14 0)
(500 1.12799e-13 0)
(500 2.06053e-13 0)
(500 2.83558e-13 0)
(500 5.43571e-13 0)
(500 5.63657e-13 0)
(500 6.00066e-13 0)
(500 6.87472e-13 0)
(500 6.15848e-13 0)
(500 5.54721e-13 0)
(500 5.53774e-13 0)
(500 4.70191e-13 0)
(500 4.15875e-13 0)
(500 2.16648e-13 0)
(500 2.73925e-13 0)
(500 1.56533e-13 0)
(500 6.93877e-14 0)
(500 9.77126e-14 0)
(500 -1.31047e-14 0)
(500 -1.50801e-13 0)
(500 -1.21141e-13 0)
(500 -4.53943e-14 0)
(500 -9.14528e-14 0)
(500 -1.59445e-13 0)
(500 -8.15694e-14 0)
(500 5.97639e-14 0)
(500 -2.21845e-14 0)
(500 -2.31326e-13 0)
(500 -2.92906e-13 0)
(500 -2.50402e-13 0)
(500 -1.93224e-13 0)
(500 -1.19411e-13 0)
(500 3.00064e-14 0)
(500 9.07932e-14 0)
(500 -6.46428e-14 0)
(500 -2.60909e-13 0)
(500 -4.30196e-13 0)
(500 -3.78494e-13 0)
(500 -3.69944e-13 0)
(500 -4.05467e-13 0)
(500 -4.49844e-13 0)
(500 -6.3253e-13 0)
(500 -2.58978e-13 0)
(500 -2.73085e-13 0)
(500 -1.04115e-13 0)
(500 2.07526e-13 0)
(500 5.57528e-13 0)
(500 4.98416e-13 0)
(500 5.02285e-13 0)
(500 5.27422e-13 0)
(500 4.40276e-13 0)
(500 6.1666e-13 0)
(500 -4.11849e-13 0)
(500 7.96247e-13 0)
(500 1.32943e-12 0)
(500 2.20603e-13 0)
(500 -4.69015e-11 0)
(500 2.7606e-10 0)
(500 -7.84832e-10 0)
(500 6.1172e-10 0)
(500 4.90557e-09 0)
(500 -2.40205e-08 0)
(500 4.99312e-08 0)
(500 2.20623e-09 0)
(500 -3.38812e-07 0)
(500 1.00062e-06 0)
(499.999 -8.13303e-07 0)
(499.998 -3.64682e-06 0)
(499.996 1.47249e-05 0)
(499.991 -2.09337e-05 0)
(499.982 -1.45517e-05 0)
(499.963 0.000120553 0)
(499.929 -0.000191709 0)
(499.868 -7.14725e-05 0)
(499.771 0.000870214 0)
(499.634 -0.00136181 0)
(499.491 0.000285628 0)
(499.415 0.000689342 0)
(499.406 0.00035097 0)
(499.41 -0.000187692 0)
(499.433 -0.000328443 0)
(499.489 -0.00028754 0)
(499.592 -0.000472448 0)
(499.747 0.000327067 0)
(499.95 0.00119696 0)
(500.192 -0.000838132 0)
(500.46 -0.00129382 0)
(500.743 0.00252939 0)
(501.034 0.00159626 0)
(501.327 -0.0046029 0)
(501.616 -0.0034391 0)
(501.898 0.00544105 0)
(502.176 0.00552077 0)
(502.449 -0.0037951 0)
(502.712 -0.00714866 0)
(502.964 0.00251512 0)
(503.206 0.00740911 0)
(503.442 -0.000665115 0)
(503.663 -0.00829855 0)
(503.87 -0.00149302 0)
(504.057 0.00859802 0)
(504.232 0.00512354 0)
(504.39 -0.00489811 0)
(504.525 -0.00736474 0)
(504.643 0.000829249 0)
(504.742 0.0054289 0)
(504.829 0.0018722 0)
(504.903 -0.00284525 0)
(504.968 -0.00208833 0)
(505.025 0.00212213 0)
(505.078 0.00235702 0)
(505.13 -0.00088075 0)
(505.18 -0.00361403 0)
(505.229 -0.0021154 0)
(505.271 0.00187446 0)
(505.298 0.00307709 0)
(505.308 0.00185834 0)
(505.31 -0.000195111 0)
(505.31 -0.00149828 0)
(505.31 -0.00157879 0)
(505.308 -0.000771768 0)
(505.304 0.000112263 0)
(505.297 0.000563745 0)
(505.286 0.000602352 0)
(505.271 0.000434718 0)
(505.252 0.000483838 0)
(505.231 0.000486796 0)
(505.209 -0.000388989 0)
(505.19 -0.00110056 0)
(505.171 -0.000994707 0)
(505.156 -0.000613662 0)
(505.145 1.10725e-06 0)
(505.137 0.000314897 0)
(505.131 0.000497271 0)
(505.127 0.000532527 0)
(505.124 0.000213945 0)
(505.121 -0.000278766 0)
(505.118 -0.000418353 0)
(505.115 -0.000338712 0)
(505.113 -0.000134165 0)
(505.111 0.000166005 0)
(505.11 0.000298813 0)
(505.11 0.000355687 0)
(505.11 0.000399546 0)
(505.112 0.000166641 0)
(505.113 -7.9856e-07 0)
(505.115 -0.000114534 0)
(505.117 -0.000215589 0)
(505.12 -7.26749e-05 0)
(505.125 5.72433e-05 0)
(505.132 5.46988e-05 0)
(505.14 3.18945e-05 0)
(505.15 9.33585e-06 0)
(505.16 -3.45291e-05 0)
(505.17 -0.000113753 0)
(505.18 -0.000293753 0)
(505.188 -0.000269932 0)
(505.195 2.87479e-05 0)
(505.2 6.44784e-05 0)
(505.202 9.34545e-05 0)
(505.203 0.000175361 0)
(505.203 0.000133201 0)
(505.203 9.58061e-05 0)
(505.202 3.41651e-05 0)
(505.2 -9.29087e-05 0)
(505.197 -0.000119652 0)
(505.194 -8.24892e-05 0)
(505.19 2.97598e-05 0)
(505.185 0.000149534 0)
(505.179 7.71761e-05 0)
(505.173 -1.44723e-05 0)
(505.166 -1.92919e-05 0)
(505.16 -2.72634e-05 0)
(505.155 -7.36505e-05 0)
(505.151 -0.000106005 0)
(505.148 -0.00010948 0)
(505.146 -7.13223e-05 0)
(505.145 -1.90887e-07 0)
(505.144 3.27246e-05 0)
(505.142 4.5326e-05 0)
(505.139 5.426e-05 0)
(505.136 7.90077e-05 0)
(505.132 9.23711e-05 0)
(505.127 8.76258e-05 0)
(505.122 0.000104878 0)
(505.118 4.2527e-05 0)
(505.117 -5.89993e-05 0)
(505.117 -5.93779e-05 0)
(505.117 -5.27453e-05 0)
(505.118 -2.7014e-05 0)
(505.119 8.29189e-06 0)
(505.121 2.14465e-05 0)
(505.126 7.73193e-06 0)
(505.132 -9.32741e-06 0)
(505.141 -6.62226e-05 0)
(505.151 -9.20049e-05 0)
(505.161 -8.81506e-05 0)
(505.169 -0.000133609 0)
(505.176 -0.000159036 0)
(505.181 8.18212e-05 0)
(505.184 0.000248285 0)
(505.188 0.000233713 0)
(505.192 0.000173033 0)
(505.196 2.25342e-05 0)
(505.199 -0.000132679 0)
(505.2 -0.000124422 0)
(505.201 -7.58114e-05 0)
(505.2 1.9529e-05 0)
(505.199 0.000162406 0)
(505.198 0.000184095 0)
(505.196 0.00015156 0)
(505.194 7.86987e-05 0)
(505.191 -0.000122932 0)
(505.187 -0.000385119 0)
(505.181 -0.00039314 0)
(505.175 -0.000335673 0)
(505.168 -0.00021183 0)
(505.162 2.74841e-06 0)
(505.156 0.000168129 0)
(505.152 0.000222532 0)
(505.149 0.000204943 0)
(505.148 5.13971e-05 0)
(505.147 8.95523e-06 0)
(505.146 4.12139e-05 0)
(505.144 0.00010539 0)
(505.143 0.000194665 0)
(505.141 0.000247975 0)
(505.139 0.000196878 0)
(505.138 0.000124188 0)
(505.136 -6.33463e-05 0)
(505.133 -0.000316639 0)
(505.128 -0.000452661 0)
(505.123 -0.000344131 0)
(505.117 -0.000111297 0)
(505.113 9.62666e-05 0)
(505.112 0.000145997 0)
(505.112 0.0001636 0)
(505.113 0.000114953 0)
(505.115 -0.000112199 0)
(505.119 -0.000173363 0)
(505.124 -0.000155597 0)
(505.131 -0.000126506 0)
(505.141 -3.04846e-05 0)
(505.151 0.000234642 0)
(505.162 0.000541989 0)
(505.171 0.000490763 0)
(505.179 7.36443e-05 0)
(505.185 -0.00018128 0)
(505.188 -0.000442928 0)
(505.19 -0.000479094 0)
(505.192 -0.00024271 0)
(505.194 0.000115795 0)
(505.197 0.000450271 0)
(505.199 0.000606463 0)
(505.202 0.000432831 0)
(505.203 0.000141384 0)
(505.204 -0.000112393 0)
(505.204 -0.000395478 0)
(505.203 -0.000727271 0)
(505.201 -0.000730742 0)
(505.198 -0.000385582 0)
(505.194 0.000155226 0)
(505.189 0.000550268 0)
(505.183 0.000650879 0)
(505.176 0.000585661 0)
(505.169 0.000277757 0)
(505.162 -0.000119762 0)
(505.156 -0.000354722 0)
(505.152 -0.000156308 0)
(505.149 -0.000100531 0)
(505.147 0.000166139 0)
(505.146 0.000363538 0)
(505.145 0.000159142 0)
(505.144 -5.70084e-06 0)
(505.143 -0.00033813 0)
(505.142 -0.00062946 0)
(505.14 -0.000903402 0)
(505.138 -0.000852423 0)
(505.132 -0.000270586 0)
(500 -6.45739e-14 0)
(500 -1.80766e-13 0)
(500 -3.27363e-13 0)
(500 -4.24707e-13 0)
(500 -4.38031e-13 0)
(500 -5.72736e-13 0)
(500 -7.74794e-13 0)
(500 -6.96053e-13 0)
(500 -4.29305e-13 0)
(500 -4.89907e-13 0)
(500 -5.45767e-13 0)
(500 -5.2577e-13 0)
(500 -6.17843e-13 0)
(500 -7.4168e-13 0)
(500 -7.76786e-13 0)
(500 -7.43213e-13 0)
(500 -7.3313e-13 0)
(500 -6.57027e-13 0)
(500 -5.10237e-13 0)
(500 -4.77532e-13 0)
(500 -1.9308e-13 0)
(500 -4.12593e-14 0)
(500 2.28259e-14 0)
(500 1.63011e-13 0)
(500 3.16579e-13 0)
(500 5.51297e-13 0)
(500 6.68844e-13 0)
(500 8.56024e-13 0)
(500 8.71195e-13 0)
(500 7.76769e-13 0)
(500 5.60026e-13 0)
(500 6.27561e-13 0)
(500 5.31281e-13 0)
(500 3.80191e-13 0)
(500 1.99955e-13 0)
(500 2.51372e-13 0)
(500 1.61896e-13 0)
(500 -2.67016e-14 0)
(500 2.07607e-13 0)
(500 1.01628e-14 0)
(500 -2.72947e-14 0)
(500 3.8399e-14 0)
(500 1.6712e-13 0)
(500 6.70862e-14 0)
(500 -4.76191e-14 0)
(500 -1.42867e-13 0)
(500 -7.49002e-14 0)
(500 -1.22378e-13 0)
(500 -1.56266e-13 0)
(500 -2.39237e-13 0)
(500 -1.42844e-13 0)
(500 -2.53907e-13 0)
(500 -2.13448e-13 0)
(500 1.63261e-14 0)
(500 -1.75035e-14 0)
(500 -3.54685e-13 0)
(500 -2.975e-13 0)
(500 -5.29491e-13 0)
(500 -4.7133e-13 0)
(500 -5.14204e-13 0)
(500 -3.29536e-13 0)
(500 -3.53193e-13 0)
(500 -4.91535e-13 0)
(500 -3.99347e-13 0)
(500 -1.92812e-13 0)
(500 -1.76205e-13 0)
(500 1.85153e-13 0)
(500 4.56276e-13 0)
(500 6.97184e-13 0)
(500 6.20395e-13 0)
(500 4.56744e-13 0)