/*--------------------------------*- C++ -*----------------------------------*\
| =========                 |                                                 |
| \\      /  F ield         | OpenFOAM: The Open Source CFD Toolbox           |
|  \\    /   O peration     | Version:  2306                                  |
|   \\  /    A nd           | Website:  www.openfoam.com                      |
|    \\/     M anipulation  |                                                 |
\*---------------------------------------------------------------------------*/
FoamFile
{
    version     2.0;
    format      ascii;
    arch        "LSB;label=32;scalar=64";
    class       volScalarField;
    location    "0.03";
    object      rho;
}
// * * * * * * * * * * * * * * * * * * * * * * * * * * * * * * * * * * * * * //

dimensions      [1 -3 0 0 0 0 0];

internalField   nonuniform List<scalar> 
6000
(
7.97995
0.162991
0.166706
0.169399
0.171288
0.172925
0.174466
0.176003
0.177572
0.179192
0.180873
0.182622
0.184446
0.186349
0.188337
0.190417
0.192596
0.194881
0.19728
0.199803
0.202459
0.20526
0.208219
0.211348
0.214665
0.218185
0.22193
0.22592
0.230181
0.234743
0.239638
0.244904
0.250585
0.256734
0.263408
0.270678
0.278621
0.28733
0.29691
0.307488
0.319214
0.33227
0.346888
0.363364
0.382087
0.403574
0.428516
0.457838
0.492757
0.534854
0.586099
0.648809
0.725404
0.817815
0.926342
1.04803
1.17522
1.2957
1.39611
1.46765
1.50981
1.52981
1.53703
1.53888
1.53944
1.53955
1.53919
1.53824
1.53701
1.53597
1.53543
1.53538
1.53574
1.53627
1.5371
1.53822
1.53952
1.54085
1.54204
1.54304
1.54386
1.54454
1.54515
1.54572
1.54628
1.54684
1.5474
1.54797
1.54855
1.54913
1.54973
1.55033
1.55093
1.55154
1.55215
1.55276
1.55338
1.554
1.55462
1.55525
1.55588
1.55651
1.55715
1.55779
1.55843
1.55907
1.55972
1.56036
1.56101
1.56166
1.56232
1.56297
1.56363
1.56428
1.56494
1.56561
1.56628
1.56695
1.56763
1.56832
1.56901
1.56971
1.57042
1.57113
1.57185
1.57257
1.5733
1.57404
1.57478
1.57554
1.5763
1.57707
1.57785
1.57864
1.57945
1.58026
1.58109
1.58192
1.58277
1.58362
1.58449
1.58537
1.58626
1.58717
1.58809
1.58903
1.58998
1.59094
1.59192
1.59291
1.59392
1.59494
1.59598
1.59704
1.59812
1.59922
1.60035
1.6015
1.60267
1.60387
1.60509
1.60633
1.60759
1.60887
1.61017
1.6115
1.61286
1.61425
1.61567
1.61713
1.61861
1.62013
1.62169
1.62327
1.62489
1.62655
1.62824
1.62998
1.63175
1.63357
1.63543
1.63734
1.6393
1.6413
1.64336
1.64546
1.64762
1.64982
1.65208
1.65439
1.65676
1.65917
1.66164
1.66417
1.66675
1.66938
1.67208
1.67484
1.67767
1.6806
1.68361
1.68665
1.68965
1.6929
1.69737
1.70322
1.70563
1.70479
1.69568
1.64471
1.47191
1.24024
1.16498
1.16105
1.16103
1.16103
1.16103
1.16103
1.16103
1.16103
1.16103
1.16103
1.16103
1.16103
1.16103
1.16103
1.16103
1.16103
1.16103
1.16103
1.16103
1.16103
1.16103
1.16103
1.16103
1.16103
1.16103
1.16103
1.16103
1.16103
1.16103
1.16103
1.16103
1.16103
1.16103
1.16103
1.16103
1.16103
1.16103
1.16103
1.16103
1.16103
1.16103
1.16103
1.16103
1.16103
1.16103
1.16103
1.16103
1.16103
1.16103
1.16103
1.16103
1.16103
1.16103
1.16103
1.16103
1.16103
1.16103
1.16103
1.16103
1.16103
1.16103
1.16103
1.16103
1.16103
1.16103
1.16103
1.16103
1.16103
1.16103
1.16103
1.16103
1.16103
1.16103
1.16103
1.16103
1.16103
1.16103
1.16103
1.16103
1.16103
1.16103
1.16103
1.16103
1.16103
1.16103
1.16103
1.16103
1.16103
7.97613
0.166802
0.166682
0.169457
0.171258
0.172913
0.174463
0.176003
0.177572
0.179192
0.180873
0.182622
0.184446
0.186349
0.188337
0.190417
0.192596
0.194881
0.19728
0.199803
0.202459
0.20526
0.208219
0.211348
0.214665
0.218185
0.22193
0.22592
0.230181
0.234743
0.239638
0.244904
0.250586
0.256734
0.263409
0.270678
0.278621
0.28733
0.29691
0.307488
0.319213
0.332269
0.346887
0.363362
0.382084
0.403571
0.428514
0.457836
0.492756
0.534852
0.586097
0.648809
0.725407
0.817818
0.926344
1.04804
1.17522
1.29571
1.39611
1.46766
1.50981
1.52981
1.53703
1.53888
1.53944
1.53955
1.53919
1.53824
1.53701
1.53597
1.53543
1.53538
1.53574
1.53627
1.5371
1.53822
1.53952
1.54085
1.54204
1.54304
1.54386
1.54454
1.54515
1.54572
1.54628
1.54684
1.5474
1.54797
1.54855
1.54913
1.54973
1.55033
1.55093
1.55154
1.55215
1.55276
1.55338
1.554
1.55462
1.55525
1.55588
1.55651
1.55715
1.55779
1.55843
1.55907
1.55972
1.56036
1.56101
1.56166
1.56232
1.56297
1.56363
1.56428
1.56494
1.56561
1.56628
1.56695
1.56763
1.56832
1.56901
1.56971
1.57042
1.57113
1.57185
1.57257
1.5733
1.57404
1.57478
1.57554
1.5763
1.57707
1.57785
1.57864
1.57945
1.58026
1.58109
1.58192
1.58277
1.58362
1.58449
1.58537
1.58626
1.58717
1.58809
1.58903
1.58998
1.59094
1.59192
1.59291
1.59392
1.59494
1.59598
1.59704
1.59812
1.59923
1.60035
1.6015
1.60267
1.60387
1.60509
1.60633
1.60759
1.60887
1.61017
1.6115
1.61286
1.61425
1.61567
1.61713
1.61861
1.62013
1.62168
1.62327
1.62489
1.62655
1.62824
1.62998
1.63176
1.63357
1.63544
1.63735
1.6393
1.64131
1.64336
1.64546
1.64762
1.64982
1.65208
1.65439
1.65676
1.65917
1.66165
1.66417
1.66675
1.66938
1.67208
1.67484
1.67767
1.6806
1.68361
1.68665
1.68965
1.6929
1.69737
1.70322
1.70563
1.70479
1.69568
1.64471
1.47191
1.24024
1.16498
1.16105
1.16103
1.16103
1.16103
1.16103
1.16103
1.16103
1.16103
1.16103
1.16103
1.16103
1.16103
1.16103
1.16103
1.16103
1.16103
1.16103
1.16103
1.16103
1.16103
1.16103
1.16103
1.16103
1.16103
1.16103
1.16103
1.16103
1.16103
1.16103
1.16103
1.16103
1.16103
1.16103
1.16103
1.16103
1.16103
1.16103
1.16103
1.16103
1.16103
1.16103
1.16103
1.16103
1.16103
1.16103
1.16103
1.16103
1.16103
1.16103
1.16103
1.16103
1.16103
1.16103
1.16103
1.16103
1.16103
1.16103
1.16103
1.16103
1.16103
1.16103
1.16103
1.16103
1.16103
1.16103
1.16103
1.16103
1.16103
1.16103
1.16103
1.16103
1.16103
1.16103
1.16103
1.16103
1.16103
1.16103
1.16103
1.16103
1.16103
1.16103
1.16103
1.16103
1.16103
1.16103
1.16103
1.16103
7.98054
0.162434
0.16683
0.169395
0.171264
0.1729
0.174457
0.176002
0.177573
0.179192
0.180873
0.182622
0.184446
0.186349
0.188337
0.190417
0.192596
0.194881
0.19728
0.199803
0.202459
0.205261
0.208219
0.211349
0.214665
0.218185
0.22193
0.22592
0.230182
0.234743
0.239638
0.244904
0.250586
0.256735
0.263409
0.270679
0.278622
0.28733
0.29691
0.307487
0.31921
0.332265
0.34688
0.363354
0.382074
0.40356
0.428503
0.457825
0.492747
0.534845
0.586092
0.648806
0.725406
0.817819
0.92635
1.04805
1.17523
1.29572
1.39612
1.46766
1.50981
1.52981
1.53703
1.53888
1.53944
1.53955
1.53919
1.53824
1.53701
1.53597
1.53543
1.53538
1.53574
1.53627
1.5371
1.53822
1.53952
1.54085
1.54204
1.54304
1.54386
1.54454
1.54515
1.54572
1.54628
1.54684
1.5474
1.54797
1.54855
1.54913
1.54973
1.55033
1.55093
1.55154
1.55215
1.55276
1.55338
1.554
1.55462
1.55525
1.55588
1.55651
1.55715
1.55779
1.55843
1.55907
1.55972
1.56036
1.56101
1.56166
1.56232
1.56297
1.56363
1.56428
1.56494
1.56561
1.56628
1.56695
1.56763
1.56832
1.56901
1.56971
1.57042
1.57113
1.57185
1.57257
1.5733
1.57404
1.57478
1.57554
1.5763
1.57707
1.57785
1.57864
1.57945
1.58026
1.58109
1.58192
1.58277
1.58362
1.58449
1.58537
1.58626
1.58717
1.58809
1.58903
1.58998
1.59094
1.59192
1.59291
1.59392
1.59495
1.59599
1.59705
1.59813
1.59923
1.60035
1.6015
1.60267
1.60387
1.60508
1.60632
1.60758
1.60887
1.61017
1.61151
1.61287
1.61426
1.61567
1.61713
1.61861
1.62013
1.62168
1.62327
1.62489
1.62655
1.62825
1.62998
1.63176
1.63358
1.63544
1.63735
1.6393
1.6413
1.64336
1.64546
1.64762
1.64982
1.65208
1.65439
1.65676
1.65918
1.66165
1.66417
1.66675
1.66938
1.67208
1.67484
1.67767
1.6806
1.68361
1.68665
1.68965
1.6929
1.69737
1.70322
1.70563
1.70479
1.69568
1.64471
1.47191
1.24024
1.16498
1.16105
1.16103
1.16103
1.16103
1.16103
1.16103
1.16103
1.16103
1.16103
1.16103
1.16103
1.16103
1.16103
1.16103
1.16103
1.16103
1.16103
1.16103
1.16103
1.16103
1.16103
1.16103
1.16103
1.16103
1.16103
1.16103
1.16103
1.16103
1.16103
1.16103
1.16103
1.16103
1.16103
1.16103
1.16103
1.16103
1.16103
1.16103
1.16103
1.16103
1.16103
1.16103
1.16103
1.16103
1.16103
1.16103
1.16103
1.16103
1.16103
1.16103
1.16103
1.16103
1.16103
1.16103
1.16103
1.16103
1.16103
1.16103
1.16103
1.16103
1.16103
1.16103
1.16103
1.16103
1.16103
1.16103
1.16103
1.16103
1.16103
1.16103
1.16103
1.16103
1.16103
1.16103
1.16103
1.16103
1.16103
1.16103
1.16103
1.16103
1.16103
1.16103
1.16103
1.16103
1.16103
1.16103
1.16103
7.97633
0.166665
0.166614
0.169442
0.171245
0.172901
0.174453
0.175998
0.177571
0.179193
0.180874
0.182623
0.184446
0.186349
0.188337
0.190417
0.192596
0.194881
0.19728
0.199803
0.20246
0.205261
0.208219
0.211349
0.214665
0.218186
0.22193
0.22592
0.230182
0.234743
0.239638
0.244905
0.250586
0.256735
0.26341
0.270679
0.278622
0.287329
0.296907
0.307482
0.319203
0.332254
0.346866
0.363336
0.382054
0.403538
0.428479
0.457802
0.492725
0.534826
0.586078
0.648796
0.725401
0.81782
0.926356
1.04806
1.17525
1.29573
1.39613
1.46767
1.50981
1.52981
1.53703
1.53888
1.53944
1.53955
1.53919
1.53824
1.53701
1.53597
1.53543
1.53538
1.53574
1.53627
1.5371
1.53822
1.53952
1.54085
1.54204
1.54304
1.54386
1.54454
1.54515
1.54572
1.54628
1.54684
1.5474
1.54797
1.54855
1.54913
1.54973
1.55033
1.55093
1.55154
1.55215
1.55276
1.55338
1.554
1.55462
1.55525
1.55588
1.55651
1.55715
1.55779
1.55843
1.55907
1.55972
1.56036
1.56101
1.56166
1.56232
1.56297
1.56363
1.56428
1.56494
1.56561
1.56628
1.56695
1.56763
1.56832
1.56901
1.56971
1.57042
1.57113
1.57185
1.57257
1.5733
1.57404
1.57478
1.57554
1.5763
1.57707
1.57785
1.57865
1.57945
1.58026
1.58108
1.58192
1.58277
1.58362
1.58449
1.58537
1.58626
1.58717
1.58809
1.58902
1.58997
1.59094
1.59191
1.59291
1.59392
1.59495
1.59599
1.59705
1.59813
1.59923
1.60036
1.6015
1.60267
1.60386
1.60508
1.60632
1.60758
1.60887
1.61018
1.61151
1.61287
1.61426
1.61568
1.61713
1.61861
1.62012
1.62168
1.62326
1.62489
1.62655
1.62825
1.62999
1.63176
1.63358
1.63544
1.63735
1.6393
1.6413
1.64335
1.64546
1.64761
1.64982
1.65208
1.65439
1.65676
1.65918
1.66165
1.66417
1.66675
1.66938
1.67208
1.67484
1.67767
1.68059
1.68361
1.68665
1.68965
1.6929
1.69737
1.70322
1.70563
1.7048
1.69568
1.64471
1.47191
1.24024
1.16498
1.16105
1.16103
1.16103
1.16103
1.16103
1.16103
1.16103
1.16103
1.16103
1.16103
1.16103
1.16103
1.16103
1.16103
1.16103
1.16103
1.16103
1.16103
1.16103
1.16103
1.16103
1.16103
1.16103
1.16103
1.16103
1.16103
1.16103
1.16103
1.16103
1.16103
1.16103
1.16103
1.16103
1.16103
1.16103
1.16103
1.16103
1.16103
1.16103
1.16103
1.16103
1.16103
1.16103
1.16103
1.16103
1.16103
1.16103
1.16103
1.16103
1.16103
1.16103
1.16103
1.16103
1.16103
1.16103
1.16103
1.16103
1.16103
1.16103
1.16103
1.16103
1.16103
1.16103
1.16103
1.16103
1.16103
1.16103
1.16103
1.16103
1.16103
1.16103
1.16103
1.16103
1.16103
1.16103
1.16103
1.16103
1.16103
1.16103
1.16103
1.16103
1.16103
1.16103
1.16103
1.16103
1.16103
1.16103
7.97872
0.164261
0.166633
0.169424
0.171273
0.17291
0.174451
0.175989
0.177565
0.179191
0.180874
0.182624
0.184446
0.186349
0.188337
0.190418
0.192596
0.194881
0.197281
0.199803
0.20246
0.205261
0.208219
0.211349
0.214665
0.218186
0.22193
0.225921
0.230182
0.234744
0.239639
0.244905
0.250587
0.256736
0.263411
0.270679
0.278621
0.287327
0.296904
0.307475
0.319193
0.332239
0.346847
0.363312
0.382026
0.403505
0.428444
0.457766
0.49269
0.534795
0.586052
0.648778
0.725391
0.817818
0.92636
1.04807
1.17526
1.29574
1.39614
1.46767
1.50981
1.52981
1.53703
1.53888
1.53944
1.53955
1.53919
1.53824
1.53701
1.53597
1.53543
1.53538
1.53574
1.53627
1.5371
1.53822
1.53952
1.54085
1.54204
1.54304
1.54386
1.54454
1.54515
1.54572
1.54628
1.54684
1.5474
1.54797
1.54855
1.54913
1.54973
1.55033
1.55093
1.55154
1.55215
1.55276
1.55338
1.554
1.55462
1.55525
1.55588
1.55651
1.55715
1.55779
1.55843
1.55907
1.55972
1.56036
1.56101
1.56166
1.56232
1.56297
1.56363
1.56428
1.56495
1.56561
1.56628
1.56695
1.56763
1.56832
1.56901
1.56971
1.57042
1.57113
1.57185
1.57257
1.5733
1.57404
1.57479
1.57554
1.5763
1.57707
1.57785
1.57865
1.57945
1.58026
1.58108
1.58192
1.58277
1.58362
1.58449
1.58537
1.58626
1.58717
1.58809
1.58902
1.58997
1.59093
1.59191
1.59291
1.59392
1.59495
1.59599
1.59706
1.59814
1.59924
1.60036
1.60151
1.60267
1.60386
1.60508
1.60632
1.60758
1.60887
1.61018
1.61151
1.61287
1.61426
1.61568
1.61713
1.61861
1.62012
1.62167
1.62326
1.62489
1.62655
1.62825
1.62999
1.63177
1.63358
1.63544
1.63735
1.6393
1.6413
1.64335
1.64545
1.64761
1.64982
1.65208
1.65439
1.65676
1.65918
1.66165
1.66417
1.66675
1.66939
1.67208
1.67484
1.67767
1.68059
1.68361
1.68665
1.68965
1.6929
1.69737
1.70322
1.70563
1.7048
1.69568
1.64471
1.47191
1.24024
1.16498
1.16105
1.16103
1.16103
1.16103
1.16103
1.16103
1.16103
1.16103
1.16103
1.16103
1.16103
1.16103
1.16103
1.16103
1.16103
1.16103
1.16103
1.16103
1.16103
1.16103
1.16103
1.16103
1.16103
1.16103
1.16103
1.16103
1.16103
1.16103
1.16103
1.16103
1.16103
1.16103
1.16103
1.16103
1.16103
1.16103
1.16103
1.16103
1.16103
1.16103
1.16103
1.16103
1.16103
1.16103
1.16103
1.16103
1.16103
1.16103
1.16103
1.16103
1.16103
1.16103
1.16103
1.16103
1.16103
1.16103
1.16103
1.16103
1.16103
1.16103
1.16103
1.16103
1.16103
1.16103
1.16103
1.16103
1.16103
1.16103
1.16103
1.16103
1.16103
1.16103
1.16103
1.16103
1.16103
1.16103
1.16103
1.16103
1.16103
1.16103
1.16103
1.16103
1.16103
1.16103
1.16103
1.16103
1.16103
7.9813
0.161872
0.166653
0.16935
0.171269
0.172915
0.174455
0.175986
0.177555
0.179183
0.180872
0.182625
0.184448
0.18635
0.188338
0.190418
0.192597
0.194882
0.197281
0.199804
0.20246
0.205261
0.20822
0.211349
0.214666
0.218186
0.221931
0.225921
0.230183
0.234744
0.239639
0.244906
0.250588
0.256736
0.263411
0.270679
0.27862
0.287324
0.296898
0.307467
0.31918
0.332223
0.346825
0.363286
0.381995
0.40347
0.428406
0.457725
0.492649
0.534757
0.586019
0.648752
0.725375
0.817811
0.92636
1.04807
1.17526
1.29574
1.39614
1.46767
1.50982
1.52981
1.53703
1.53888
1.53944
1.53955
1.53919
1.53824
1.53701
1.53597
1.53543
1.53538
1.53574
1.53627
1.5371
1.53822
1.53952
1.54085
1.54204
1.54304
1.54386
1.54454
1.54515
1.54572
1.54628
1.54684
1.5474
1.54797
1.54855
1.54913
1.54973
1.55033
1.55093
1.55154
1.55215
1.55276
1.55338
1.554
1.55462
1.55525
1.55588
1.55651
1.55715
1.55779
1.55843
1.55907
1.55972
1.56037
1.56101
1.56166
1.56232
1.56297
1.56363
1.56428
1.56495
1.56561
1.56628
1.56695
1.56763
1.56832
1.56901
1.56971
1.57042
1.57113
1.57185
1.57257
1.5733
1.57404
1.57479
1.57554
1.5763
1.57707
1.57786
1.57865
1.57945
1.58026
1.58108
1.58192
1.58276
1.58362
1.58449
1.58537
1.58626
1.58717
1.58809
1.58902
1.58997
1.59093
1.59191
1.5929
1.59392
1.59495
1.59599
1.59706
1.59814
1.59924
1.60037
1.60151
1.60267
1.60386
1.60508
1.60631
1.60758
1.60886
1.61018
1.61151
1.61287
1.61426
1.61568
1.61712
1.6186
1.62012
1.62167
1.62326
1.62489
1.62655
1.62825
1.62999
1.63177
1.63359
1.63545
1.63735
1.6393
1.6413
1.64335
1.64545
1.64761
1.64981
1.65208
1.65439
1.65676
1.65918
1.66165
1.66418
1.66675
1.66939
1.67208
1.67484
1.67767
1.68059
1.68361
1.68665
1.68964
1.6929
1.69737
1.70322
1.70563
1.7048
1.69568
1.64471
1.47191
1.24024
1.16498
1.16105
1.16103
1.16103
1.16103
1.16103
1.16103
1.16103
1.16103
1.16103
1.16103
1.16103
1.16103
1.16103
1.16103
1.16103
1.16103
1.16103
1.16103
1.16103
1.16103
1.16103
1.16103
1.16103
1.16103
1.16103
1.16103
1.16103
1.16103
1.16103
1.16103
1.16103
1.16103
1.16103
1.16103
1.16103
1.16103
1.16103
1.16103
1.16103
1.16103
1.16103
1.16103
1.16103
1.16103
1.16103
1.16103
1.16103
1.16103
1.16103
1.16103
1.16103
1.16103
1.16103
1.16103
1.16103
1.16103
1.16103
1.16103
1.16103
1.16103
1.16103
1.16103
1.16103
1.16103
1.16103
1.16103
1.16103
1.16103
1.16103
1.16103
1.16103
1.16103
1.16103
1.16103
1.16103
1.16103
1.16103
1.16103
1.16103
1.16103
1.16103
1.16103
1.16103
1.16103
1.16103
1.16103
1.16103
7.97639
0.166843
0.166465
0.169445
0.171264
0.172936
0.174479
0.175994
0.17755
0.179172
0.180864
0.182623
0.184449
0.186351
0.188338
0.190418
0.192597
0.194882
0.197281
0.199804
0.20246
0.205261
0.20822
0.21135
0.214666
0.218186
0.221931
0.225921
0.230183
0.234745
0.23964
0.244906
0.250588
0.256736
0.263411
0.270679
0.278618
0.287321
0.296893
0.307459
0.31917
0.332208
0.346807
0.363264
0.381969
0.403441
0.428374
0.457691
0.492614
0.534721
0.585986
0.648724
0.725354
0.817798
0.926355
1.04807
1.17526
1.29574
1.39614
1.46767
1.50981
1.52981
1.53703
1.53888
1.53944
1.53955
1.53919
1.53824
1.53701
1.53597
1.53543
1.53538
1.53574
1.53627
1.5371
1.53822
1.53952
1.54085
1.54204
1.54304
1.54386
1.54454
1.54515
1.54572
1.54628
1.54684
1.5474
1.54797
1.54855
1.54913
1.54973
1.55033
1.55093
1.55154
1.55215
1.55276
1.55338
1.554
1.55462
1.55525
1.55588
1.55651
1.55715
1.55779
1.55843
1.55907
1.55972
1.56037
1.56101
1.56166
1.56232
1.56297
1.56363
1.56428
1.56495
1.56561
1.56628
1.56695
1.56763
1.56832
1.56901
1.56971
1.57042
1.57113
1.57185
1.57257
1.5733
1.57404
1.57479
1.57554
1.5763
1.57708
1.57786
1.57865
1.57945
1.58026
1.58108
1.58192
1.58276
1.58362
1.58449
1.58537
1.58626
1.58717
1.58808
1.58902
1.58996
1.59093
1.5919
1.5929
1.59391
1.59495
1.59599
1.59706
1.59815
1.59925
1.60037
1.60151
1.60268
1.60386
1.60508
1.60631
1.60758
1.60886
1.61017
1.61151
1.61287
1.61426
1.61568
1.61712
1.61861
1.62012
1.62167
1.62326
1.62489
1.62655
1.62825
1.62999
1.63177
1.63359
1.63545
1.63735
1.6393
1.6413
1.64335
1.64545
1.6476
1.64981
1.65207
1.65439
1.65676
1.65918
1.66165
1.66418
1.66676
1.66939
1.67208
1.67484
1.67767
1.68059
1.68361
1.68665
1.68964
1.6929
1.69737
1.70323
1.70563
1.7048
1.69568
1.64471
1.47191
1.24024
1.16498
1.16105
1.16103
1.16103
1.16103
1.16103
1.16103
1.16103
1.16103
1.16103
1.16103
1.16103
1.16103
1.16103
1.16103
1.16103
1.16103
1.16103
1.16103
1.16103
1.16103
1.16103
1.16103
1.16103
1.16103
1.16103
1.16103
1.16103
1.16103
1.16103
1.16103
1.16103
1.16103
1.16103
1.16103
1.16103
1.16103
1.16103
1.16103
1.16103
1.16103
1.16103
1.16103
1.16103
1.16103
1.16103
1.16103
1.16103
1.16103
1.16103
1.16103
1.16103
1.16103
1.16103
1.16103
1.16103
1.16103
1.16103
1.16103
1.16103
1.16103
1.16103
1.16103
1.16103
1.16103
1.16103
1.16103
1.16103
1.16103
1.16103
1.16103
1.16103
1.16103
1.16103
1.16103
1.16103
1.16103
1.16103
1.16103
1.16103
1.16103
1.16103
1.16103
1.16103
1.16103
1.16103
1.16103
1.16103
7.9823
0.161124
0.166539
0.169322
0.171264
0.172932
0.174494
0.176015
0.177559
0.179168
0.180854
0.182616
0.184448
0.186353
0.18834
0.190418
0.192597
0.194882
0.197282
0.199804
0.202461
0.205262
0.20822
0.21135
0.214666
0.218187
0.221931
0.225922
0.230183
0.234745
0.23964
0.244906
0.250588
0.256736
0.26341
0.270678
0.278617
0.287319
0.296889
0.307453
0.319162
0.332199
0.346795
0.36325
0.381953
0.403424
0.428354
0.45767
0.49259
0.534697
0.58596
0.648699
0.72533
0.817779
0.926341
1.04806
1.17526
1.29574
1.39614
1.46767
1.50981
1.52981
1.53703
1.53888
1.53944
1.53955
1.53919
1.53824
1.53701
1.53597
1.53543
1.53538
1.53574
1.53627
1.5371
1.53822
1.53952
1.54085
1.54204
1.54304
1.54386
1.54454
1.54515
1.54572
1.54628
1.54684
1.5474
1.54797
1.54855
1.54913
1.54973
1.55033
1.55093
1.55154
1.55215
1.55276
1.55338
1.554
1.55462
1.55525
1.55588
1.55651
1.55715
1.55779
1.55843
1.55907
1.55972
1.56037
1.56101
1.56167
1.56232
1.56297
1.56363
1.56429
1.56495
1.56561
1.56628
1.56695
1.56763
1.56832
1.56902
1.56971
1.57042
1.57113
1.57185
1.57257
1.5733
1.57404
1.57479
1.57554
1.5763
1.57708
1.57786
1.57865
1.57945
1.58026
1.58108
1.58192
1.58276
1.58362
1.58449
1.58537
1.58626
1.58717
1.58808
1.58902
1.58996
1.59092
1.5919
1.5929
1.59391
1.59494
1.59599
1.59706
1.59815
1.59925
1.60037
1.60152
1.60268
1.60387
1.60508
1.60632
1.60758
1.60886
1.61017
1.6115
1.61287
1.61426
1.61567
1.61712
1.61861
1.62012
1.62168
1.62326
1.62489
1.62655
1.62825
1.62999
1.63177
1.63359
1.63545
1.63735
1.6393
1.6413
1.64335
1.64545
1.6476
1.64981
1.65207
1.65439
1.65676
1.65918
1.66165
1.66418
1.66676
1.66939
1.67208
1.67484
1.67766
1.68059
1.68361
1.68665
1.68964
1.6929
1.69737
1.70323
1.70563
1.7048
1.69568
1.64471
1.47191
1.24024
1.16498
1.16105
1.16103
1.16103
1.16103
1.16103
1.16103
1.16103
1.16103
1.16103
1.16103
1.16103
1.16103
1.16103
1.16103
1.16103
1.16103
1.16103
1.16103
1.16103
1.16103
1.16103
1.16103
1.16103
1.16103
1.16103
1.16103
1.16103
1.16103
1.16103
1.16103
1.16103
1.16103
1.16103
1.16103
1.16103
1.16103
1.16103
1.16103
1.16103
1.16103
1.16103
1.16103
1.16103
1.16103
1.16103
1.16103
1.16103
1.16103
1.16103
1.16103
1.16103
1.16103
1.16103
1.16103
1.16103
1.16103
1.16103
1.16103
1.16103
1.16103
1.16103
1.16103
1.16103
1.16103
1.16103
1.16103
1.16103
1.16103
1.16103
1.16103
1.16103
1.16103
1.16103
1.16103
1.16103
1.16103
1.16103
1.16103
1.16103
1.16103
1.16103
1.16103
1.16103
1.16103
1.16103
1.16103
1.16103
7.97625
0.167275
0.166137
0.169388
0.171253
0.172919
0.174489
0.176032
0.177577
0.179175
0.180849
0.182606
0.184442
0.186353
0.188342
0.19042
0.192597
0.194882
0.197282
0.199804
0.202461
0.205262
0.20822
0.21135
0.214666
0.218187
0.221931
0.225922
0.230183
0.234745
0.23964
0.244906
0.250588
0.256736
0.26341
0.270677
0.278615
0.287316
0.296886
0.30745
0.319157
0.332194
0.34679
0.363244
0.381947
0.403416
0.428346
0.45766
0.492579
0.534683
0.585944
0.648679
0.725308
0.817755
0.926319
1.04804
1.17524
1.29573
1.39613
1.46767
1.50981
1.52981
1.53703
1.53888
1.53944
1.53955
1.53919
1.53824
1.53701
1.53597
1.53543
1.53538
1.53574
1.53627
1.5371
1.53822
1.53952
1.54085
1.54204
1.54304
1.54386
1.54454
1.54515
1.54572
1.54628
1.54684
1.5474
1.54797
1.54855
1.54913
1.54973
1.55033
1.55093
1.55154
1.55215
1.55276
1.55338
1.554
1.55462
1.55525
1.55588
1.55651
1.55715
1.55779
1.55843
1.55907
1.55972
1.56037
1.56101
1.56167
1.56232
1.56297
1.56363
1.56429
1.56495
1.56561
1.56628
1.56695
1.56763
1.56832
1.56902
1.56972
1.57042
1.57113
1.57185
1.57257
1.5733
1.57404
1.57479
1.57554
1.57631
1.57708
1.57786
1.57865
1.57945
1.58026
1.58108
1.58192
1.58276
1.58362
1.58449
1.58537
1.58626
1.58717
1.58808
1.58901
1.58996
1.59092
1.5919
1.5929
1.59391
1.59494
1.59599
1.59706
1.59815
1.59925
1.60037
1.60152
1.60269
1.60387
1.60509
1.60632
1.60758
1.60886
1.61017
1.6115
1.61286
1.61425
1.61567
1.61712
1.61861
1.62013
1.62168
1.62327
1.62489
1.62655
1.62825
1.62999
1.63177
1.63359
1.63545
1.63735
1.6393
1.6413
1.64335
1.64545
1.6476
1.64981
1.65207
1.65439
1.65676
1.65918
1.66166
1.66418
1.66676
1.66939
1.67208
1.67484
1.67766
1.68059
1.68361
1.68664
1.68964
1.6929
1.69737
1.70323
1.70563
1.7048
1.69568
1.64471
1.47191
1.24024
1.16498
1.16105
1.16103
1.16103
1.16103
1.16103
1.16103
1.16103
1.16103
1.16103
1.16103
1.16103
1.16103
1.16103
1.16103
1.16103
1.16103
1.16103
1.16103
1.16103
1.16103
1.16103
1.16103
1.16103
1.16103
1.16103
1.16103
1.16103
1.16103
1.16103
1.16103
1.16103
1.16103
1.16103
1.16103
1.16103
1.16103
1.16103
1.16103
1.16103
1.16103
1.16103
1.16103
1.16103
1.16103
1.16103
1.16103
1.16103
1.16103
1.16103
1.16103
1.16103
1.16103
1.16103
1.16103
1.16103
1.16103
1.16103
1.16103
1.16103
1.16103
1.16103
1.16103
1.16103
1.16103
1.16103
1.16103
1.16103
1.16103
1.16103
1.16103
1.16103
1.16103
1.16103
1.16103
1.16103
1.16103
1.16103
1.16103
1.16103
1.16103
1.16103
1.16103
1.16103
1.16103
1.16103
1.16103
1.16103
7.98263
0.161155
0.16617
0.169248
0.171279
0.172907
0.174471
0.176034
0.177593
0.179187
0.180852
0.1826
0.184434
0.186349
0.188343
0.190422
0.192598
0.194882
0.197282
0.199805
0.202461
0.205262
0.20822
0.21135
0.214667
0.218187
0.221932
0.225922
0.230184
0.234745
0.23964
0.244906
0.250588
0.256736
0.263409
0.270676
0.278614
0.287315
0.296884
0.307448
0.319156
0.332192
0.346789
0.363243
0.381945
0.403415
0.428344
0.457658
0.492576
0.534677
0.585934
0.648664
0.725288
0.81773
0.926291
1.04802
1.17522
1.29572
1.39612
1.46766
1.50981
1.52981
1.53703
1.53888
1.53944
1.53955
1.53919
1.53824
1.53701
1.53597
1.53543
1.53538
1.53574
1.53627
1.5371
1.53822
1.53952
1.54085
1.54204
1.54304
1.54386
1.54454
1.54515
1.54572
1.54628
1.54684
1.5474
1.54797
1.54855
1.54913
1.54973
1.55033
1.55093
1.55154
1.55215
1.55276
1.55338
1.554
1.55462
1.55525
1.55588
1.55651
1.55715
1.55779
1.55843
1.55907
1.55972
1.56037
1.56101
1.56167
1.56232
1.56297
1.56363
1.56429
1.56495
1.56561
1.56628
1.56695
1.56764
1.56832
1.56902
1.56972
1.57042
1.57113
1.57185
1.57257
1.5733
1.57404
1.57479
1.57554
1.57631
1.57708
1.57786
1.57865
1.57945
1.58026
1.58108
1.58192
1.58276
1.58362
1.58449
1.58537
1.58626
1.58717
1.58808
1.58901
1.58996
1.59092
1.5919
1.59289
1.59391
1.59494
1.59599
1.59706
1.59814
1.59925
1.60038
1.60152
1.60269
1.60388
1.60509
1.60632
1.60758
1.60886
1.61016
1.61149
1.61286
1.61425
1.61567
1.61712
1.61861
1.62013
1.62168
1.62327
1.6249
1.62655
1.62825
1.62999
1.63176
1.63358
1.63545
1.63735
1.6393
1.6413
1.64335
1.64545
1.6476
1.64981
1.65207
1.65439
1.65676
1.65918
1.66166
1.66418
1.66676
1.66939
1.67208
1.67484
1.67766
1.68059
1.68361
1.68664
1.68964
1.6929
1.69737
1.70323
1.70563
1.7048
1.69568
1.64471
1.47191
1.24024
1.16498
1.16105
1.16103
1.16103
1.16103
1.16103
1.16103
1.16103
1.16103
1.16103
1.16103
1.16103
1.16103
1.16103
1.16103
1.16103
1.16103
1.16103
1.16103
1.16103
1.16103
1.16103
1.16103
1.16103
1.16103
1.16103
1.16103
1.16103
1.16103
1.16103
1.16103
1.16103
1.16103
1.16103
1.16103
1.16103
1.16103
1.16103
1.16103
1.16103
1.16103
1.16103
1.16103
1.16103
1.16103
1.16103
1.16103
1.16103
1.16103
1.16103
1.16103
1.16103
1.16103
1.16103
1.16103
1.16103
1.16103
1.16103
1.16103
1.16103
1.16103
1.16103
1.16103
1.16103
1.16103
1.16103
1.16103
1.16103
1.16103
1.16103
1.16103
1.16103
1.16103
1.16103
1.16103
1.16103
1.16103
1.16103
1.16103
1.16103
1.16103
1.16103
1.16103
1.16103
1.16103
1.16103
1.16103
1.16103
7.97621
0.167632
0.165781
0.169326
0.171305
0.172919
0.174446
0.176024
0.177602
0.1792
0.180859
0.182599
0.184427
0.186343
0.188341
0.190423
0.192599
0.194882
0.197281
0.199805
0.202461
0.205262
0.208221
0.21135
0.214667
0.218187
0.221932
0.225922
0.230184
0.234745
0.23964
0.244906
0.250588
0.256735
0.263408
0.270675
0.278613
0.287313
0.296883
0.307447
0.319155
0.332192
0.346789
0.363243
0.381946
0.403416
0.428346
0.457659
0.492577
0.534676
0.585929
0.648654
0.725271
0.817707
0.926263
1.04799
1.17519
1.29569
1.39611
1.46765
1.50981
1.52981
1.53703
1.53888
1.53944
1.53955
1.53919
1.53824
1.53701
1.53597
1.53543
1.53538
1.53574
1.53627
1.5371
1.53822
1.53952
1.54085
1.54204
1.54304
1.54386
1.54454
1.54515
1.54572
1.54628
1.54684
1.5474
1.54797
1.54855
1.54913
1.54973
1.55033
1.55093
1.55154
1.55215
1.55276
1.55338
1.554
1.55462
1.55525
1.55588
1.55651
1.55715
1.55779
1.55843
1.55907
1.55972
1.56037
1.56102
1.56167
1.56232
1.56297
1.56363
1.56429
1.56495
1.56561
1.56628
1.56695
1.56764
1.56832
1.56902
1.56972
1.57042
1.57113
1.57185
1.57257
1.5733
1.57404
1.57479
1.57554
1.57631
1.57708
1.57786
1.57865
1.57945
1.58026
1.58108
1.58192
1.58276
1.58362
1.58449
1.58537
1.58626
1.58717
1.58808
1.58901
1.58996
1.59092
1.5919
1.59289
1.59391
1.59494
1.59599
1.59705
1.59814
1.59925
1.60038
1.60153
1.60269
1.60388
1.60509
1.60632
1.60758
1.60886
1.61016
1.61149
1.61285
1.61424
1.61567
1.61712
1.61861
1.62013
1.62169
1.62327
1.6249
1.62655
1.62825
1.62999
1.63176
1.63358
1.63544
1.63735
1.6393
1.6413
1.64335
1.64545
1.6476
1.64981
1.65207
1.65439
1.65676
1.65918
1.66165
1.66418
1.66676
1.66939
1.67208
1.67484
1.67766
1.68059
1.68361
1.68664
1.68964
1.6929
1.69737
1.70323
1.70563
1.7048
1.69568
1.64471
1.47191
1.24024
1.16498
1.16105
1.16103
1.16103
1.16103
1.16103
1.16103
1.16103
1.16103
1.16103
1.16103
1.16103
1.16103
1.16103
1.16103
1.16103
1.16103
1.16103
1.16103
1.16103
1.16103
1.16103
1.16103
1.16103
1.16103
1.16103
1.16103
1.16103
1.16103
1.16103
1.16103
1.16103
1.16103
1.16103
1.16103
1.16103
1.16103
1.16103
1.16103
1.16103
1.16103
1.16103
1.16103
1.16103
1.16103
1.16103
1.16103
1.16103
1.16103
1.16103
1.16103
1.16103
1.16103
1.16103
1.16103
1.16103
1.16103
1.16103
1.16103
1.16103
1.16103
1.16103
1.16103
1.16103
1.16103
1.16103
1.16103
1.16103
1.16103
1.16103
1.16103
1.16103
1.16103
1.16103
1.16103
1.16103
1.16103
1.16103
1.16103
1.16103
1.16103
1.16103
1.16103
1.16103
1.16103
1.16103
1.16103
1.16103
7.98301
0.161074
0.165834
0.169197
0.171367
0.172937
0.174429
0.176006
0.177604
0.179209
0.180867
0.182602
0.184424
0.186338
0.188338
0.190424
0.192601
0.194883
0.197281
0.199804
0.202461
0.205262
0.208221
0.21135
0.214667
0.218187
0.221932
0.225922
0.230184
0.234745
0.23964
0.244906
0.250587
0.256735
0.263408
0.270674
0.278612
0.287312
0.296882
0.307446
0.319155
0.332192
0.34679
0.363245
0.381949
0.403419
0.428349
0.457662
0.492579
0.534676
0.585927
0.648647
0.725259
0.817689
0.92624
1.04796
1.17517
1.29568
1.3961
1.46765
1.5098
1.52981
1.53703
1.53888
1.53944
1.53955
1.53919
1.53824
1.53701
1.53597
1.53543
1.53538
1.53574
1.53627
1.5371
1.53822
1.53952
1.54085
1.54204
1.54304
1.54386
1.54454
1.54515
1.54572
1.54628
1.54684
1.5474
1.54797
1.54855
1.54914
1.54973
1.55033
1.55093
1.55154
1.55215
1.55276
1.55338
1.554
1.55462
1.55525
1.55588
1.55651
1.55715
1.55779
1.55843
1.55907
1.55972
1.56037
1.56102
1.56167
1.56232
1.56297
1.56363
1.56429
1.56495
1.56561
1.56628
1.56695
1.56764
1.56832
1.56902
1.56972
1.57042
1.57113
1.57185
1.57257
1.5733
1.57404
1.57479
1.57554
1.57631
1.57708
1.57786
1.57865
1.57945
1.58026
1.58108
1.58192
1.58276
1.58362
1.58449
1.58537
1.58626
1.58716
1.58808
1.58901
1.58996
1.59092
1.5919
1.59289
1.5939
1.59493
1.59598
1.59705
1.59814
1.59925
1.60038
1.60153
1.6027
1.60389
1.60509
1.60633
1.60758
1.60885
1.61016
1.61149
1.61285
1.61424
1.61567
1.61712
1.61861
1.62014
1.62169
1.62328
1.6249
1.62655
1.62825
1.62999
1.63176
1.63358
1.63544
1.63735
1.6393
1.6413
1.64335
1.64545
1.6476
1.64981
1.65207
1.65439
1.65676
1.65918
1.66165
1.66418
1.66676
1.66939
1.67208
1.67484
1.67767
1.68059
1.68361
1.68665
1.68964
1.6929
1.69737
1.70323
1.70563
1.7048
1.69568
1.64471
1.47191
1.24024
1.16498
1.16105
1.16103
1.16103
1.16103
1.16103
1.16103
1.16103
1.16103
1.16103
1.16103
1.16103
1.16103
1.16103
1.16103
1.16103
1.16103
1.16103
1.16103
1.16103
1.16103
1.16103
1.16103
1.16103
1.16103
1.16103
1.16103
1.16103
1.16103
1.16103
1.16103
1.16103
1.16103
1.16103
1.16103
1.16103
1.16103
1.16103
1.16103
1.16103
1.16103
1.16103
1.16103
1.16103
1.16103
1.16103
1.16103
1.16103
1.16103
1.16103
1.16103
1.16103
1.16103
1.16103
1.16103
1.16103
1.16103
1.16103
1.16103
1.16103
1.16103
1.16103
1.16103
1.16103
1.16103
1.16103
1.16103
1.16103
1.16103
1.16103
1.16103
1.16103
1.16103