/*--------------------------------*- C++ -*----------------------------------*\
| =========                 |                                                 |
| \\      /  F ield         | OpenFOAM: The Open Source CFD Toolbox           |
|  \\    /   O peration     | Version:  2306                                  |
|   \\  /    A nd           | Website:  www.openfoam.com                      |
|    \\/     M anipulation  |                                                 |
\*---------------------------------------------------------------------------*/
FoamFile
{
    version     2.0;
    format      ascii;
    arch        "LSB;label=32;scalar=64";
    class       volVectorField;
    location    "0.03";
    object      U;
}
// * * * * * * * * * * * * * * * * * * * * * * * * * * * * * * * * * * * * * //

dimensions      [0 1 -1 0 0 0 0];

internalField   nonuniform List<vector> 
6000
(
(-2183.01 -0.000846297 0)
(-505.051 0.192942 0)
(108.984 -0.0165206 0)
(102.27 0.0821088 0)
(102.478 0.0513798 0)
(102.468 0.0104897 0)
(102.564 0.000535867 0)
(102.623 -0.000904445 0)
(102.681 -0.000450436 0)
(102.74 0.000123044 0)
(102.8 0.00042515 0)
(102.86 3.60951e-05 0)
(102.921 -0.000468555 0)
(102.981 -0.000339547 0)
(103.042 0.000328931 0)
(103.102 0.000522642 0)
(103.163 -0.000129679 0)
(103.223 -0.000692772 0)
(103.283 -0.000518114 0)
(103.344 0.000367885 0)
(103.404 0.000792908 0)
(103.465 4.10219e-06 0)
(103.526 -0.000936895 0)
(103.587 -0.000864207 0)
(103.648 0.00036149 0)
(103.709 0.000863401 0)
(103.77 0.000496011 0)
(103.831 0.000181571 0)
(103.893 -0.000690583 0)
(103.954 -0.00211127 0)
(104.015 -0.00142951 0)
(104.076 0.000221428 0)
(104.139 0.000883945 0)
(104.202 -0.000676979 0)
(104.266 -0.00352336 0)
(104.329 -0.00473763 0)
(104.391 -0.00415845 0)
(104.451 -0.00290381 0)
(104.51 -0.00191659 0)
(104.569 -0.0012567 0)
(104.627 -0.00117152 0)
(104.686 -0.00129404 0)
(104.746 -0.00158998 0)
(104.808 -0.00194176 0)
(104.871 -0.00162596 0)
(104.938 0.0008458 0)
(105.006 0.00398709 0)
(105.076 0.00568837 0)
(105.149 0.00492745 0)
(105.228 0.00271706 0)
(105.317 0.000246585 0)
(105.419 -0.000781687 0)
(105.538 0.000742263 0)
(105.672 0.00245738 0)
(105.806 0.00149327 0)
(105.912 0.000615052 0)
(105.968 0.000221135 0)
(105.97 -0.000868556 0)
(105.934 -0.00173453 0)
(105.922 -0.00111857 0)
(105.915 0.000180946 0)
(105.969 0.000903314 0)
(106.029 0.000805705 0)
(106.071 0.000647113 0)
(106.194 0.000409449 0)
(106.237 0.000183627 0)
(106.311 0.000104279 0)
(106.385 -2.26157e-06 0)
(106.456 -6.86922e-05 0)
(106.53 -0.000198549 0)
(106.597 -0.000256643 0)
(106.697 -0.000243638 0)
(106.753 -0.000193438 0)
(106.826 -0.000165123 0)
(106.903 -0.000132103 0)
(106.982 -9.76025e-05 0)
(107.06 -6.56195e-05 0)
(107.139 -4.05478e-05 0)
(107.219 -2.5058e-05 0)
(107.299 -2.03868e-05 0)
(107.381 -2.34212e-05 0)
(107.463 -2.88073e-05 0)
(107.547 -3.40063e-05 0)
(107.631 -3.83888e-05 0)
(107.716 -4.34949e-05 0)
(107.802 -4.79413e-05 0)
(107.889 -5.31005e-05 0)
(107.976 -5.84248e-05 0)
(108.065 -6.52992e-05 0)
(108.155 -7.23798e-05 0)
(108.246 -7.78967e-05 0)
(108.338 -7.88185e-05 0)
(108.431 -7.66745e-05 0)
(108.525 -7.4601e-05 0)
(108.62 -7.43774e-05 0)
(108.716 -7.39128e-05 0)
(108.813 -7.1344e-05 0)
(108.912 -6.76389e-05 0)
(109.012 -6.51669e-05 0)
(109.112 -6.36143e-05 0)
(109.214 -6.27788e-05 0)
(109.318 -6.28997e-05 0)
(109.423 -6.19882e-05 0)
(109.529 -6.24207e-05 0)
(109.636 -5.90911e-05 0)
(109.745 -5.34881e-05 0)
(109.855 -4.58642e-05 0)
(109.967 -3.9054e-05 0)
(110.08 -3.23267e-05 0)
(110.194 -2.80989e-05 0)
(110.31 -2.25111e-05 0)
(110.427 -1.90419e-05 0)
(110.547 -1.55019e-05 0)
(110.667 -1.21062e-05 0)
(110.79 -8.32488e-06 0)
(110.914 -5.47798e-06 0)
(111.04 -5.08868e-06 0)
(111.167 -2.89738e-06 0)
(111.297 -5.56887e-06 0)
(111.428 -9.38858e-06 0)
(111.561 -1.59801e-05 0)
(111.696 -2.45172e-05 0)
(111.833 -2.89153e-05 0)
(111.973 -3.10587e-05 0)
(112.114 -3.5412e-05 0)
(112.257 -3.86262e-05 0)
(112.403 -4.00985e-05 0)
(112.551 -4.23369e-05 0)
(112.7 -4.44021e-05 0)
(112.853 -4.39227e-05 0)
(113.007 -4.46327e-05 0)
(113.164 -4.7432e-05 0)
(113.324 -4.78643e-05 0)
(113.487 -4.65689e-05 0)
(113.653 -4.57193e-05 0)
(113.821 -4.68458e-05 0)
(113.992 -5.00059e-05 0)
(114.166 -5.78719e-05 0)
(114.342 -7.40592e-05 0)
(114.522 -9.37125e-05 0)
(114.704 -0.000102172 0)
(114.89 -0.000106005 0)
(115.079 -0.000107891 0)
(115.271 -0.000108006 0)
(115.467 -0.000104364 0)
(115.666 -9.76375e-05 0)
(115.869 -9.20581e-05 0)
(116.076 -9.97782e-05 0)
(116.286 -0.000128656 0)
(116.5 -0.000181576 0)
(116.717 -0.000254293 0)
(116.938 -0.000327897 0)
(117.163 -0.000353266 0)
(117.393 -0.000349283 0)
(117.627 -0.000337467 0)
(117.867 -0.0003029 0)
(118.112 -0.000251244 0)
(118.363 -0.00020548 0)
(118.619 -0.00016784 0)
(118.881 -0.000143378 0)
(119.148 -0.000134576 0)
(119.42 -0.000152878 0)
(119.697 -0.000195002 0)
(119.979 -0.000247572 0)
(120.266 -0.000284748 0)
(120.56 -0.000279 0)
(120.86 -0.000247429 0)
(121.166 -0.000183574 0)
(121.48 -0.000106313 0)
(121.801 -3.71158e-05 0)
(122.13 2.11732e-05 0)
(122.466 3.64578e-05 0)
(122.809 2.37382e-05 0)
(123.161 -2.603e-05 0)
(123.52 -0.000104458 0)
(123.887 -0.000187766 0)
(124.263 -0.00023091 0)
(124.648 -0.000233803 0)
(125.042 -0.0002203 0)
(125.445 -0.000177927 0)
(125.859 -0.000106543 0)
(126.282 -2.47442e-05 0)
(126.716 3.87733e-05 0)
(127.161 8.6571e-05 0)
(127.617 0.000113401 0)
(128.084 0.000129259 0)
(128.561 0.000121229 0)
(129.051 8.54297e-05 0)
(129.551 2.9263e-05 0)
(130.064 -3.47859e-05 0)
(130.587 -8.01311e-05 0)
(131.122 -9.1597e-05 0)
(131.669 -9.04503e-05 0)
(132.227 -7.94944e-05 0)
(132.796 -6.02614e-05 0)
(133.378 -2.79323e-05 0)
(133.973 3.16396e-06 0)
(134.581 2.55918e-05 0)
(135.205 3.95989e-05 0)
(135.85 4.97049e-05 0)
(136.514 5.37259e-05 0)
(137.181 4.57963e-05 0)
(137.838 2.5937e-05 0)
(138.55 4.65779e-07 0)
(139.533 -1.9792e-05 0)
(140.818 -1.48396e-05 0)
(141.341 -9.81377e-06 0)
(141.148 -9.81446e-06 0)
(139.131 -7.00308e-06 0)
(127.843 5.97508e-07 0)
(87.0047 5.63624e-06 0)
(23.9451 1.74451e-06 0)
(1.20679 9.0001e-08 0)
(0.00654693 4.86881e-10 0)
(2.42259e-06 -8.15363e-14 0)
(7.85952e-11 -2.24105e-13 0)
(7.48338e-14 -4.64293e-14 0)
(1.59879e-14 -6.14306e-14 0)
(-7.2097e-14 -9.91401e-14 0)
(7.29996e-15 -6.01038e-16 0)
(2.67135e-13 2.31917e-14 0)
(1.94152e-14 4.26507e-14 0)
(-2.69911e-13 3.37396e-14 0)
(-9.4945e-14 1.13561e-13 0)
(8.59904e-14 1.42802e-13 0)
(2.49887e-13 6.78316e-14 0)
(1.58469e-13 -9.81604e-14 0)
(-3.60292e-13 -1.52084e-13 0)
(-4.13787e-13 -8.865e-15 0)
(-9.40814e-14 1.4129e-13 0)
(4.01339e-14 7.60113e-14 0)
(-2.81665e-14 2.19823e-14 0)
(-6.08998e-14 9.30698e-14 0)
(1.0811e-13 4.99076e-14 0)
(2.19054e-13 7.74687e-14 0)
(1.32106e-13 9.48128e-14 0)
(-1.34575e-13 1.12602e-13 0)
(-4.01143e-13 1.09544e-13 0)
(-4.72202e-13 7.23992e-14 0)
(-3.98053e-13 -1.09663e-14 0)
(-3.09889e-13 -2.91291e-14 0)
(-5.66261e-13 -1.0249e-13 0)
(-6.65386e-13 -1.55537e-13 0)
(-6.82557e-13 -8.33344e-15 0)
(-7.41353e-13 8.46004e-14 0)
(-8.38683e-13 4.55511e-14 0)
(-9.01041e-13 1.55032e-13 0)
(-9.99408e-13 1.2286e-13 0)
(-1.13735e-12 7.92382e-14 0)
(-1.11361e-12 -1.22429e-15 0)
(-1.06074e-12 1.73085e-14 0)
(-1.05907e-12 -6.99517e-14 0)
(-8.4696e-13 -6.8489e-14 0)
(-8.96285e-13 -1.24679e-13 0)
(-1.07993e-12 -1.78777e-13 0)
(-8.53972e-13 -1.60355e-13 0)
(-6.20511e-13 -1.79952e-13 0)
(-6.63927e-13 -2.66279e-13 0)
(-8.20784e-13 -1.46823e-13 0)
(-8.52595e-13 -5.00049e-14 0)
(-7.45776e-13 -1.11666e-13 0)
(-5.62555e-13 -1.18682e-13 0)
(-7.01484e-13 -4.61186e-14 0)
(-5.80353e-13 1.09576e-14 0)
(-4.28619e-13 2.88588e-14 0)
(-3.84985e-13 8.7739e-14 0)
(-2.91232e-13 -2.96774e-14 0)
(-1.19097e-13 -9.42385e-14 0)
(-1.64421e-13 -1.66825e-13 0)
(-4.84183e-13 -2.07931e-13 0)
(-2.39176e-13 -1.90961e-13 0)
(-1.43091e-13 -1.54959e-13 0)
(-2.75513e-13 -3.25516e-14 0)
(-2.19124e-13 -1.41215e-14 0)
(-3.48789e-13 -3.37605e-14 0)
(-2.9489e-13 -1.29727e-13 0)
(-4.15835e-13 -2.17557e-13 0)
(-7.49566e-13 -2.36631e-13 0)
(-9.96512e-13 -1.58473e-13 0)
(-1.04123e-12 -3.48275e-14 0)
(-1.04758e-12 4.11197e-14 0)
(-7.01231e-13 3.84156e-15 0)
(-5.90144e-13 -5.97059e-14 0)
(-1.04904e-12 -6.93316e-14 0)
(-1.44179e-12 1.81417e-14 0)
(-1.81025e-12 -1.96244e-14 0)
(-2.03893e-12 -2.10554e-14 0)
(-1.83843e-12 -8.84712e-14 0)
(-1.87802e-12 -2.22577e-13 0)
(-2.12752e-12 -2.48515e-13 0)
(-2.15286e-12 -2.42255e-13 0)
(-2.25907e-12 -1.8e-13 0)
(-2.43842e-12 -1.35114e-13 0)
(-2.44991e-12 -6.11698e-14 0)
(-2.31505e-12 -3.37149e-14 0)
(-2.22703e-12 3.19927e-14 0)
(-2.26812e-12 8.51225e-14 0)
(-2.36024e-12 6.36377e-14 0)
(-2.67574e-12 7.68306e-14 0)
(-2.89546e-12 9.2968e-14 0)
(-2183.5 0.0104224 0)
(-521.611 -0.488241 0)
(109.077 -0.0645457 0)
(102.73 0.0314585 0)
(102.319 0.10091 0)
(102.386 0.0475378 0)
(102.536 0.00817762 0)
(102.624 -0.00177733 0)
(102.685 -0.0018455 0)
(102.741 -0.000497734 0)
(102.8 -2.53558e-05 0)
(102.86 4.81538e-05 0)
(102.921 0.000178884 0)
(102.981 0.00017348 0)
(103.042 -0.000151848 0)
(103.102 -0.000257576 0)
(103.163 1.32957e-05 0)
(103.223 0.000229375 0)
(103.283 0.000227138 0)
(103.343 -0.000226588 0)
(103.404 -0.000582946 0)
(103.465 -0.000230551 0)
(103.526 0.000343721 0)
(103.586 0.000576552 0)
(103.647 6.31155e-05 0)
(103.708 -0.00081208 0)
(103.77 -0.00106061 0)
(103.831 -0.000593937 0)
(103.893 0.000224699 0)
(103.953 0.00088665 0)
(104.014 0.000458294 0)
(104.075 -0.000672779 0)
(104.137 -0.00255774 0)
(104.199 -0.00373744 0)
(104.261 -0.0023937 0)
(104.323 -6.42499e-05 0)
(104.383 0.00320103 0)
(104.443 0.00643465 0)
(104.503 0.00889712 0)
(104.562 0.0103694 0)
(104.622 0.00935941 0)
(104.683 0.00787928 0)
(104.744 0.00548854 0)
(104.807 0.00257263 0)
(104.871 -0.000540252 0)
(104.936 -0.00347267 0)
(105.003 -0.00544206 0)
(105.073 -0.00649498 0)
(105.147 -0.00703132 0)
(105.227 -0.0072199 0)
(105.315 -0.00666274 0)
(105.418 -0.00531156 0)
(105.538 -0.00394096 0)
(105.671 -0.00323075 0)
(105.804 -0.00178265 0)
(105.91 -0.000708378 0)
(105.966 -0.000204792 0)
(105.967 -0.000339974 0)
(105.931 -0.000328269 0)
(105.919 0.000172798 0)
(105.913 0.000742149 0)
(105.967 0.00103562 0)
(106.027 0.000639391 0)
(106.07 0.000506604 0)
(106.194 0.000376537 0)
(106.236 0.000190016 0)
(106.31 0.000102518 0)
(106.385 -4.00049e-06 0)
(106.456 -6.49155e-05 0)
(106.53 -0.000202376 0)
(106.596 -0.00029148 0)
(106.697 -0.000273204 0)
(106.752 -0.000166101 0)
(106.825 -0.000109076 0)
(106.902 -5.3906e-05 0)
(106.98 -9.8821e-06 0)
(107.059 1.83517e-05 0)
(107.138 3.14226e-05 0)
(107.217 3.33666e-05 0)
(107.298 2.42897e-05 0)
(107.379 1.07086e-05 0)
(107.462 6.78532e-07 0)
(107.546 -2.7893e-06 0)
(107.63 6.59112e-07 0)
(107.715 9.0679e-06 0)
(107.801 1.64464e-05 0)
(107.888 1.8974e-05 0)
(107.975 1.59486e-05 0)
(108.064 1.0776e-05 0)
(108.154 8.08891e-06 0)
(108.245 1.07436e-05 0)
(108.336 1.82613e-05 0)
(108.429 2.72243e-05 0)
(108.523 3.17666e-05 0)
(108.619 2.96445e-05 0)
(108.715 2.1537e-05 0)
(108.812 1.13154e-05 0)
(108.911 3.02913e-06 0)
(109.01 -2.35176e-06 0)
(109.111 -7.27313e-06 0)
(109.213 -1.71419e-05 0)
(109.317 -3.42684e-05 0)
(109.421 -5.52894e-05 0)
(109.527 -7.24728e-05 0)
(109.635 -7.93014e-05 0)
(109.744 -7.57802e-05 0)
(109.854 -6.60215e-05 0)
(109.966 -5.56898e-05 0)
(110.079 -4.98318e-05 0)
(110.193 -4.94972e-05 0)
(110.309 -5.42208e-05 0)
(110.426 -6.01161e-05 0)
(110.545 -6.46217e-05 0)
(110.666 -6.31203e-05 0)
(110.789 -5.02707e-05 0)
(110.913 -3.04606e-05 0)
(111.039 -1.26721e-05 0)
(111.166 -7.06201e-06 0)
(111.296 -1.20774e-05 0)
(111.427 -2.11085e-05 0)
(111.56 -2.80649e-05 0)
(111.695 -2.65969e-05 0)
(111.832 -7.31335e-06 0)
(111.971 2.7158e-05 0)
(112.113 6.06855e-05 0)
(112.256 7.69477e-05 0)
(112.402 7.17803e-05 0)
(112.549 5.76077e-05 0)
(112.699 4.9156e-05 0)
(112.851 5.52672e-05 0)
(113.006 9.30754e-05 0)
(113.163 0.000164682 0)
(113.323 0.000255044 0)
(113.486 0.000335642 0)
(113.651 0.000368854 0)
(113.819 0.000341287 0)
(113.99 0.000267008 0)
(114.164 0.000176966 0)
(114.341 0.000112369 0)
(114.52 0.00010042 0)
(114.703 0.000127574 0)
(114.888 0.000192605 0)
(115.077 0.000258941 0)
(115.269 0.000279937 0)
(115.465 0.000254857 0)
(115.665 0.00018124 0)
(115.868 4.85991e-05 0)
(116.074 -0.000153223 0)
(116.284 -0.000413102 0)
(116.498 -0.000676104 0)
(116.715 -0.000842911 0)
(116.937 -0.000822558 0)
(117.162 -0.000673512 0)
(117.392 -0.000463375 0)
(117.626 -0.000187447 0)
(117.866 0.000137666 0)
(118.111 0.000462006 0)
(118.362 0.000742649 0)
(118.618 0.000865394 0)
(118.879 0.000791941 0)
(119.146 0.000494145 0)
(119.418 9.06482e-05 0)
(119.695 -0.00027022 0)
(119.977 -0.000467718 0)
(120.265 -0.000465203 0)
(120.559 -0.00034849 0)
(120.859 -0.000100093 0)
(121.165 0.000207817 0)
(121.479 0.000479897 0)
(121.8 0.000629552 0)
(122.128 0.000637253 0)
(122.464 0.000485987 0)
(122.808 0.000164527 0)
(123.159 -0.000204316 0)
(123.519 -0.000486486 0)
(123.886 -0.000567825 0)
(124.262 -0.000496008 0)
(124.647 -0.000370978 0)
(125.041 -0.000155861 0)
(125.445 0.00011215 0)
(125.858 0.000369579 0)
(126.282 0.00056341 0)
(126.715 0.000654771 0)
(127.16 0.000638402 0)
(127.616 0.000548187 0)
(128.083 0.000353632 0)
(128.561 0.000110087 0)
(129.05 -0.000122183 0)
(129.551 -0.000290416 0)
(130.063 -0.000345672 0)
(130.587 -0.000296194 0)
(131.122 -0.000219416 0)
(131.668 -0.000125315 0)
(132.226 -1.18976e-05 0)
(132.796 9.71605e-05 0)
(133.378 0.000171702 0)
(133.972 0.000200964 0)
(134.581 0.000192346 0)
(135.205 0.000167117 0)
(135.85 0.000125522 0)
(136.514 6.89721e-05 0)
(137.181 3.20561e-06 0)
(137.837 -5.97496e-05 0)
(138.55 -9.595e-05 0)
(139.533 -8.86316e-05 0)
(140.818 -6.03498e-05 0)
(141.341 -2.71483e-05 0)
(141.148 -7.29956e-06 0)
(139.131 1.95448e-05 0)
(127.843 4.00496e-05 0)
(87.0047 3.54179e-05 0)
(23.9451 1.19576e-05 0)
(1.20679 6.71991e-07 0)
(0.00654691 3.85875e-09 0)
(2.42258e-06 1.2769e-12 0)
(7.86772e-11 -1.95766e-13 0)
(1.62608e-13 -1.5856e-13 0)
(-8.06955e-14 -1.38008e-13 0)
(-1.34405e-13 -1.53704e-13 0)
(9.17245e-14 -9.86706e-15 0)
(2.6297e-13 -2.81321e-14 0)
(5.29705e-14 -6.39032e-16 0)
(-9.32918e-14 6.96058e-14 0)
(5.9699e-14 1.77608e-13 0)
(4.14563e-14 1.29548e-13 0)
(6.56983e-15 1.29207e-13 0)
(-6.46811e-14 -4.74683e-14 0)
(-3.03484e-13 -3.86057e-14 0)
(-1.6736e-13 2.35281e-14 0)
(-1.48301e-13 -6.19182e-15 0)
(-7.34897e-14 5.36458e-14 0)
(7.61612e-14 4.06594e-14 0)
(1.01367e-13 1.34764e-13 0)
(1.15545e-13 1.01236e-13 0)
(2.32292e-13 1.63994e-13 0)
(1.53992e-13 9.40303e-14 0)
(-1.06523e-13 1.14046e-13 0)
(-3.37695e-13 2.91548e-14 0)
(-5.20367e-13 7.40401e-14 0)
(-5.19857e-13 4.46125e-14 0)
(-3.76075e-13 1.94976e-14 0)
(-6.04241e-13 1.10583e-14 0)
(-5.07992e-13 9.96881e-15 0)
(-4.98513e-13 5.66239e-14 0)
(-7.01672e-13 1.66603e-13 0)
(-7.98567e-13 1.42132e-13 0)
(-8.85056e-13 2.13518e-13 0)
(-1.09621e-12 8.32187e-14 0)
(-1.22156e-12 1.45143e-13 0)
(-1.17149e-12 4.40204e-14 0)
(-1.23134e-12 -2.35241e-14 0)
(-1.33428e-12 -1.73026e-13 0)
(-1.00248e-12 -2.67946e-13 0)
(-1.02081e-12 -4.38825e-13 0)
(-1.08128e-12 -3.84569e-13 0)
(-7.88552e-13 -3.59156e-13 0)
(-6.84125e-13 -2.60682e-13 0)
(-5.56252e-13 -2.84929e-13 0)
(-5.32439e-13 -1.7085e-13 0)
(-8.43361e-13 -7.8902e-14 0)
(-8.66386e-13 -7.83049e-14 0)
(-5.66153e-13 -1.02279e-13 0)
(-6.55078e-13 -7.64782e-14 0)
(-5.54698e-13 8.00296e-15 0)
(-3.46352e-13 4.18911e-14 0)
(-4.70429e-13 -7.23059e-14 0)
(-4.98602e-13 -2.76359e-13 0)
(-2.83191e-13 -2.96512e-13 0)
(-3.06714e-13 -3.37121e-13 0)
(-5.49323e-13 -3.18063e-13 0)
(-2.22569e-13 -1.31866e-13 0)
(-7.79016e-14 -1.86218e-13 0)
(-1.23125e-13 -6.4486e-14 0)
(-2.35692e-13 -1.10337e-13 0)
(-4.47295e-13 -1.28529e-13 0)
(-4.3825e-13 -1.06928e-13 0)
(-4.82384e-13 -1.80178e-13 0)
(-7.70669e-13 -2.16212e-13 0)
(-9.09246e-13 -1.27246e-13 0)
(-9.34735e-13 -1.25717e-13 0)
(-1.10819e-12 -7.19066e-14 0)
(-8.41306e-13 -6.70459e-14 0)
(-6.94254e-13 -2.5465e-13 0)
(-1.00507e-12 -2.93657e-13 0)
(-1.37703e-12 -1.12221e-13 0)
(-1.74123e-12 -9.72232e-14 0)
(-1.92053e-12 -3.60014e-14 0)
(-1.89689e-12 3.75022e-14 0)
(-1.94421e-12 -8.49539e-14 0)
(-2.17473e-12 -1.1984e-13 0)
(-2.22343e-12 -1.38242e-13 0)
(-2.1954e-12 -2.21007e-13 0)
(-2.2939e-12 -1.40148e-13 0)
(-2.37305e-12 -2.34108e-14 0)
(-2.27609e-12 -1.41516e-15 0)
(-2.15578e-12 -2.74728e-15 0)
(-2.25187e-12 -1.70238e-14 0)
(-2.41486e-12 -1.45075e-14 0)
(-2.51253e-12 -2.17111e-14 0)
(-2.59339e-12 2.11659e-13 0)
(-2183.04 -0.0240637 0)
(-501.599 0.310513 0)
(110.673 0.08834 0)
(102.541 0.0659769 0)
(102.379 0.0552715 0)
(102.311 0.0304413 0)
(102.501 0.0123678 0)
(102.618 0.00104585 0)
(102.688 -0.000716387 0)
(102.744 -0.000887178 0)
(102.801 -0.000353167 0)
(102.86 7.65749e-05 0)
(102.921 0.000389273 0)
(102.981 0.000304602 0)
(103.042 -0.000282776 0)
(103.102 -0.000458813 0)
(103.163 4.20602e-05 0)
(103.223 0.000443932 0)
(103.283 0.000418485 0)
(103.343 -0.000378829 0)
(103.404 -0.00099615 0)
(103.465 -0.00037543 0)
(103.526 0.000634305 0)
(103.587 0.000929836 0)
(103.647 7.59205e-06 0)
(103.709 -0.00134361 0)
(103.77 -0.00173876 0)
(103.831 -0.000980889 0)
(103.892 0.000631852 0)
(103.953 0.00185063 0)
(104.014 0.00111332 0)
(104.075 -0.000706661 0)
(104.136 -0.00300439 0)
(104.198 -0.00453464 0)
(104.26 -0.00308313 0)
(104.322 0.00115036 0)
(104.383 0.00635305 0)
(104.444 0.0107342 0)
(104.504 0.0137255 0)
(104.565 0.0154958 0)
(104.625 0.0136703 0)
(104.686 0.0113099 0)
(104.748 0.00778532 0)
(104.81 0.00371293 0)
(104.874 -0.00025375 0)
(104.939 -0.00406566 0)
(105.005 -0.00742529 0)
(105.074 -0.00975894 0)
(105.146 -0.0109929 0)
(105.225 -0.0109919 0)
(105.313 -0.0095973 0)
(105.417 -0.00780404 0)
(105.537 -0.00662591 0)
(105.67 -0.00535479 0)
(105.803 -0.00311184 0)
(105.909 -0.00145357 0)
(105.965 -0.000352248 0)
(105.967 -9.31888e-05 0)
(105.931 0.000160317 0)
(105.918 0.00051036 0)
(105.912 0.000762667 0)
(105.967 0.000905293 0)
(106.026 0.000587195 0)
(106.069 0.000467741 0)
(106.193 0.000233245 0)
(106.236 -8.98326e-07 0)
(106.31 -2.238e-05 0)
(106.384 -5.82977e-05 0)
(106.456 -7.50465e-05 0)
(106.529 -9.58526e-05 0)
(106.596 -0.000119526 0)
(106.696 -0.000133919 0)
(106.751 -0.000105487 0)
(106.825 -7.15272e-05 0)
(106.901 -3.62811e-05 0)
(106.98 -1.6887e-05 0)
(107.059 -1.78694e-05 0)
(107.137 -2.77095e-05 0)
(107.217 -3.35392e-05 0)
(107.297 -3.83236e-05 0)
(107.379 -4.11398e-05 0)
(107.462 -3.87163e-05 0)
(107.545 -3.32969e-05 0)
(107.63 -2.58272e-05 0)
(107.715 -1.65577e-05 0)
(107.8 -9.7758e-06 0)
(107.887 -8.63677e-06 0)
(107.975 -1.19134e-05 0)
(108.064 -1.63129e-05 0)
(108.153 -1.69714e-05 0)
(108.244 -1.30139e-05 0)
(108.336 -5.74714e-06 0)
(108.429 1.95764e-06 0)
(108.523 4.82939e-06 0)
(108.618 -3.74874e-07 0)
(108.714 -9.40769e-06 0)
(108.812 -1.95973e-05 0)
(108.91 -3.02744e-05 0)
(109.01 -4.3341e-05 0)
(109.111 -6.37975e-05 0)
(109.213 -8.93937e-05 0)
(109.316 -0.000115494 0)
(109.421 -0.000135526 0)
(109.527 -0.000145625 0)
(109.635 -0.000145721 0)
(109.744 -0.000137283 0)
(109.854 -0.000124847 0)
(109.965 -0.000111961 0)
(110.078 -0.000106136 0)
(110.193 -0.000105084 0)
(110.309 -0.000104321 0)
(110.426 -0.00010278 0)
(110.545 -9.28478e-05 0)
(110.666 -7.3807e-05 0)
(110.789 -5.13417e-05 0)
(110.913 -3.15078e-05 0)
(111.039 -2.63446e-05 0)
(111.166 -3.37774e-05 0)
(111.295 -4.53426e-05 0)
(111.427 -5.21027e-05 0)
(111.56 -4.15237e-05 0)
(111.695 -9.87862e-06 0)
(111.832 3.00004e-05 0)
(111.971 6.30899e-05 0)
(112.112 8.20902e-05 0)
(112.256 8.94131e-05 0)
(112.401 9.34927e-05 0)
(112.549 0.000106639 0)
(112.699 0.000143975 0)
(112.851 0.000221685 0)
(113.006 0.00033079 0)
(113.163 0.000450775 0)
(113.323 0.000555352 0)
(113.485 0.000616022 0)
(113.651 0.000614731 0)
(113.819 0.000550144 0)
(113.99 0.000450854 0)
(114.164 0.000366546 0)
(114.341 0.000333387 0)
(114.52 0.00034703 0)
(114.703 0.000408013 0)
(114.888 0.000484354 0)
(115.077 0.000535798 0)
(115.269 0.000525213 0)
(115.465 0.000405817 0)
(115.664 0.000158147 0)
(115.867 -0.000195717 0)
(116.073 -0.000609143 0)
(116.284 -0.0010276 0)
(116.497 -0.00138425 0)
(116.715 -0.00160097 0)
(116.936 -0.0016135 0)
(117.162 -0.0013519 0)
(117.392 -0.000804131 0)
(117.627 -0.000142346 0)
(117.866 0.000455398 0)
(118.111 0.000915509 0)
(118.362 0.00118505 0)
(118.617 0.00120621 0)
(118.879 0.00090482 0)
(119.145 0.000392468 0)
(119.417 -0.000152842 0)
(119.694 -0.000551066 0)
(119.977 -0.00071327 0)
(120.265 -0.000648105 0)
(120.559 -0.000333622 0)
(120.859 9.56311e-05 0)
(121.166 0.000503839 0)
(121.479 0.00078699 0)
(121.8 0.00086698 0)
(122.128 0.000663123 0)
(122.464 0.000238038 0)
(122.807 -0.000258994 0)
(123.159 -0.00069367 0)
(123.518 -0.00095825 0)
(123.886 -0.00102372 0)
(124.263 -0.000870219 0)
(124.648 -0.000496346 0)
(125.042 -3.49542e-05 0)
(125.445 0.000402274 0)
(125.858 0.000753425 0)
(126.282 0.000982744 0)
(126.716 0.00107951 0)
(127.16 0.000997084 0)
(127.616 0.000709897 0)
(128.082 0.000321427 0)
(128.56 -7.0925e-05 0)
(129.05 -0.000386523 0)
(129.551 -0.000580401 0)
(130.063 -0.000650145 0)
(130.587 -0.000612047 0)
(131.122 -0.000448843 0)
(131.669 -0.000209712 0)
(132.227 2.47192e-05 0)
(132.796 0.000205009 0)
(133.378 0.000313688 0)
(133.973 0.000357237 0)
(134.581 0.000348185 0)
(135.205 0.000276444 0)
(135.85 0.000158216 0)
(136.514 2.74545e-05 0)
(137.181 -8.44224e-05 0)
(137.837 -0.000155803 0)
(138.55 -0.000182004 0)
(139.533 -0.000168234 0)
(140.818 -0.000113093 0)
(141.341 -4.88394e-05 0)
(141.148 -1.92672e-06 0)
(139.131 4.77004e-05 0)
(127.843 7.48233e-05 0)
(87.0046 6.41663e-05 0)
(23.945 1.99536e-05 0)
(1.20678 1.07556e-06 0)
(0.00654686 6.06904e-09 0)
(2.42255e-06 1.97281e-12 0)
(7.85445e-11 -2.00986e-13 0)
(3.13788e-13 -1.01473e-13 0)
(4.56968e-14 3.82401e-14 0)
(1.7171e-14 1.73722e-13 0)
(1.121e-13 2.07802e-13 0)
(1.92812e-13 1.61856e-13 0)
(1.56391e-13 1.66321e-13 0)
(1.02509e-13 1.98434e-13 0)
(4.20839e-14 3.00326e-13 0)
(9.28726e-14 2.31987e-13 0)
(4.66278e-14 2.13018e-13 0)
(-1.20628e-13 1.44761e-13 0)
(-3.06559e-13 1.60167e-13 0)
(-3.79133e-13 6.49653e-14 0)
(-1.09473e-13 1.24592e-14 0)
(1.17588e-13 7.85945e-14 0)
(1.88708e-13 1.54138e-13 0)
(7.82981e-14 1.84679e-13 0)
(1.15995e-13 1.61048e-13 0)
(1.44828e-13 2.50709e-14 0)
(4.26415e-14 -7.38112e-14 0)
(-1.21149e-13 6.4284e-14 0)
(-1.82828e-13 1.75756e-13 0)
(-3.62211e-13 2.76981e-13 0)
(-4.52938e-13 4.2537e-13 0)
(-3.91146e-13 3.28314e-13 0)
(-6.07128e-13 3.34199e-13 0)
(-5.10738e-13 2.69074e-13 0)
(-4.29397e-13 2.14046e-14 0)
(-6.21463e-13 -9.96916e-14 0)
(-8.46409e-13 -7.79156e-14 0)
(-1.08398e-12 -1.45046e-13 0)
(-1.06809e-12 -1.29844e-13 0)
(-1.11808e-12 -1.51248e-13 0)
(-1.28079e-12 -1.24751e-13 0)
(-1.43769e-12 -3.20947e-13 0)
(-1.57825e-12 -4.45987e-13 0)
(-1.32758e-12 -3.88707e-13 0)
(-1.074e-12 -5.16871e-13 0)
(-8.93754e-13 -4.01482e-13 0)
(-6.51008e-13 -4.0488e-13 0)
(-5.02667e-13 -3.30027e-13 0)
(-4.77538e-13 -3.16545e-13 0)
(-4.54051e-13 -3.10686e-13 0)
(-7.04857e-13 -2.54298e-13 0)
(-8.30559e-13 -1.10215e-14 0)
(-6.57755e-13 1.1444e-15 0)
(-5.7379e-13 -6.06636e-14 0)
(-5.0298e-13 -6.98764e-14 0)
(-5.43406e-13 -8.21344e-14 0)
(-7.11504e-13 -2.19211e-13 0)
(-6.56482e-13 -2.58805e-13 0)
(-3.40896e-13 -3.46236e-13 0)
(-2.87467e-13 -4.92795e-13 0)
(-3.18519e-13 -3.90228e-13 0)
(-9.2818e-14 -2.57193e-13 0)
(-1.23322e-13 -2.19658e-13 0)
(-1.99466e-13 -2.30531e-13 0)
(-3.67999e-13 -2.62924e-13 0)
(-3.77971e-13 -3.52191e-13 0)
(-3.35352e-13 -3.15399e-13 0)
(-5.87794e-13 -3.59664e-13 0)
(-7.8621e-13 -3.55317e-13 0)
(-9.1635e-13 -4.15056e-13 0)
(-1.00671e-12 -5.0413e-13 0)
(-1.02141e-12 -4.55495e-13 0)
(-9.65704e-13 -3.81678e-13 0)
(-9.70966e-13 -4.59295e-13 0)
(-9.13287e-13 -5.24381e-13 0)
(-1.17325e-12 -4.11792e-13 0)
(-1.57967e-12 -3.35623e-13 0)
(-1.73326e-12 -2.12931e-13 0)
(-1.86316e-12 -1.99831e-13 0)
(-2.03355e-12 -3.22129e-13 0)
(-2.21005e-12 -2.95771e-13 0)
(-2.31844e-12 -2.35594e-13 0)
(-2.23436e-12 -1.90389e-13 0)
(-2.20003e-12 -7.9896e-14 0)
(-2.30056e-12 -1.424e-13 0)
(-2.30684e-12 -1.39563e-13 0)
(-2.27759e-12 -1.44443e-13 0)
(-2.33222e-12 -2.35903e-13 0)
(-2.32699e-12 -1.27167e-13 0)
(-2.12022e-12 -7.16113e-14 0)
(-2.07642e-12 -2.75844e-14 0)
(-2183.42 -0.0455922 0)
(-522.112 0.901735 0)
(108.677 0.184172 0)
(102.673 0.0764812 0)
(102.281 0.01161 0)
(102.336 0.0318669 0)
(102.489 0.03839 0)
(102.6 0.0191978 0)
(102.681 0.00329583 0)
(102.744 -0.00138703 0)
(102.803 -0.00215655 0)
(102.861 -0.000485522 0)
(102.921 0.000547242 0)
(102.981 0.000489511 0)
(103.042 -0.000401518 0)
(103.102 -0.000681155 0)
(103.163 -6.35164e-06 0)
(103.223 0.000608422 0)
(103.283 0.000509072 0)
(103.344 -0.000569725 0)
(103.404 -0.00133494 0)
(103.465 -0.000470496 0)
(103.526 0.000843337 0)
(103.587 0.00121892 0)
(103.648 5.74377e-05 0)
(103.709 -0.00170334 0)
(103.77 -0.00220924 0)
(103.831 -0.00123047 0)
(103.892 0.00101312 0)
(103.953 0.0026226 0)
(104.014 0.00167033 0)
(104.075 -0.000508893 0)
(104.136 -0.00307081 0)
(104.198 -0.00460267 0)
(104.259 -0.00277898 0)
(104.321 0.00217527 0)
(104.382 0.00817776 0)
(104.443 0.013611 0)
(104.504 0.0171508 0)
(104.566 0.0192311 0)
(104.627 0.0169356 0)
(104.689 0.0140937 0)
(104.752 0.00998862 0)
(104.815 0.00511115 0)
(104.879 0.000367997 0)
(104.944 -0.00436573 0)
(105.01 -0.00851322 0)
(105.078 -0.0119306 0)
(105.15 -0.0143763 0)
(105.228 -0.0149636 0)
(105.315 -0.0138062 0)
(105.418 -0.0121054 0)
(105.537 -0.0100871 0)
(105.67 -0.0071727 0)
(105.802 -0.00407179 0)
(105.909 -0.00194833 0)
(105.965 -0.000579733 0)
(105.966 -0.000121008 0)
(105.93 0.000307965 0)
(105.918 0.000606071 0)
(105.912 0.000663807 0)
(105.966 0.000707447 0)
(106.026 0.000408846 0)
(106.069 0.000294194 0)
(106.193 8.31092e-05 0)
(106.236 -2.92102e-05 0)
(106.31 -2.72244e-05 0)
(106.384 -3.99181e-05 0)
(106.455 -5.72391e-05 0)
(106.529 -5.50734e-05 0)
(106.596 -4.2691e-05 0)
(106.696 -4.00354e-05 0)
(106.751 -3.61176e-05 0)
(106.825 -2.94125e-05 0)
(106.901 -2.11109e-05 0)
(106.98 -1.95112e-05 0)
(107.059 -2.85428e-05 0)
(107.137 -3.94048e-05 0)
(107.217 -4.42758e-05 0)
(107.297 -5.09693e-05 0)
(107.379 -5.96915e-05 0)
(107.462 -6.47461e-05 0)
(107.545 -6.36018e-05 0)
(107.63 -5.61421e-05 0)
(107.715 -4.25804e-05 0)
(107.8 -2.86636e-05 0)
(107.887 -2.20034e-05 0)
(107.975 -2.52618e-05 0)
(108.064 -3.33087e-05 0)
(108.153 -4.09095e-05 0)
(108.244 -4.13239e-05 0)
(108.336 -3.29043e-05 0)
(108.429 -2.14598e-05 0)
(108.523 -1.2204e-05 0)
(108.618 -8.9661e-06 0)
(108.714 -1.69264e-05 0)
(108.812 -3.21526e-05 0)
(108.91 -5.12414e-05 0)
(109.01 -7.41603e-05 0)
(109.111 -9.85482e-05 0)
(109.213 -0.000125294 0)
(109.316 -0.000149893 0)
(109.421 -0.000169037 0)
(109.527 -0.000183526 0)
(109.635 -0.00019292 0)
(109.744 -0.000198264 0)
(109.854 -0.00020079 0)
(109.965 -0.000197918 0)
(110.078 -0.000186523 0)
(110.193 -0.000172059 0)
(110.309 -0.000149726 0)
(110.426 -0.000116439 0)
(110.545 -8.09277e-05 0)
(110.666 -5.13587e-05 0)
(110.789 -3.41218e-05 0)
(110.913 -3.54296e-05 0)
(111.038 -4.95494e-05 0)
(111.166 -6.57744e-05 0)
(111.295 -7.16615e-05 0)
(111.426 -5.65563e-05 0)
(111.56 -1.97583e-05 0)
(111.695 3.02027e-05 0)
(111.832 8.03088e-05 0)
(111.971 0.000119271 0)
(112.112 0.000142562 0)
(112.256 0.000152446 0)
(112.401 0.000163455 0)
(112.549 0.000193247 0)
(112.699 0.000255474 0)
(112.851 0.000352791 0)
(113.006 0.000481209 0)
(113.163 0.000621613 0)
(113.323 0.000739963 0)
(113.486 0.000808745 0)
(113.651 0.000818256 0)
(113.819 0.000762752 0)
(113.99 0.000661757 0)
(114.164 0.000561153 0)
(114.341 0.000506703 0)
(114.52 0.000518368 0)
(114.703 0.000567894 0)
(114.888 0.000638411 0)
(115.077 0.000692562 0)
(115.269 0.000687399 0)
(115.465 0.000561778 0)
(115.664 0.000294127 0)
(115.866 -0.000101353 0)
(116.073 -0.00057824 0)
(116.283 -0.00106446 0)
(116.497 -0.00148199 0)
(116.715 -0.00176817 0)
(116.936 -0.00186332 0)
(117.163 -0.00169002 0)
(117.393 -0.00123383 0)
(117.628 -0.000544581 0)
(117.867 0.000229043 0)
(118.112 0.000873468 0)
(118.362 0.00121353 0)
(118.617 0.00125934 0)
(118.878 0.00104609 0)
(119.144 0.000606199 0)
(119.416 8.6709e-05 0)
(119.694 -0.000351222 0)
(119.977 -0.000587275 0)
(120.265 -0.000597799 0)
(120.56 -0.000386253 0)
(120.86 -5.17534e-06 0)
(121.166 0.000409916 0)
(121.48 0.0006981 0)
(121.8 0.00074704 0)
(122.128 0.000550562 0)
(122.463 0.000168379 0)
(122.806 -0.000291384 0)
(123.158 -0.000697204 0)
(123.518 -0.000952867 0)
(123.886 -0.00104332 0)
(124.263 -0.000952953 0)
(124.648 -0.000682001 0)
(125.042 -0.000263194 0)
(125.446 0.00023603 0)
(125.859 0.000714833 0)
(126.282 0.00105955 0)
(126.716 0.00119604 0)
(127.16 0.00111704 0)
(127.615 0.000846856 0)
(128.082 0.000463573 0)
(128.56 4.63882e-05 0)
(129.049 -0.000326444 0)
(129.55 -0.000597211 0)
(130.063 -0.000743444 0)
(130.587 -0.000754913 0)
(131.123 -0.000635869 0)
(131.669 -0.000417504 0)
(132.227 -0.00014931 0)
(132.797 0.000112032 0)
(133.378 0.000316289 0)
(133.973 0.000432932 0)
(134.581 0.000449189 0)
(135.205 0.000368881 0)
(135.849 0.000226134 0)
(136.513 6.0198e-05 0)
(137.18 -8.85504e-05 0)
(137.837 -0.000189291 0)
(138.55 -0.000229819 0)
(139.533 -0.000209023 0)
(140.818 -0.000135141 0)
(141.341 -5.48648e-05 0)
(141.148 -2.25849e-06 0)
(139.131 5.61431e-05 0)
(127.843 9.26486e-05 0)
(87.0045 8.02971e-05 0)
(23.9449 2.51084e-05 0)
(1.20677 1.35344e-06 0)
(0.0065468 7.61558e-09 0)
(2.42252e-06 2.66718e-12 0)
(7.88208e-11 -2.2801e-13 0)
(6.80685e-13 7.68591e-14 0)
(3.38064e-13 2.38328e-13 0)
(1.74972e-13 3.79505e-13 0)
(5.6337e-14 4.39454e-13 0)
(1.86284e-13 3.75894e-13 0)
(8.7501e-14 3.58728e-13 0)
(1.55445e-13 2.42896e-13 0)
(1.52561e-13 2.26155e-13 0)
(-1.75359e-14 2.53877e-13 0)
(-4.89771e-14 2.62646e-13 0)
(-2.00349e-13 2.754e-13 0)
(-4.70258e-13 1.86701e-13 0)
(-3.75028e-13 2.60554e-13 0)
(-1.04347e-13 2.12929e-13 0)
(7.8719e-14 1.78651e-13 0)
(3.218e-13 1.93858e-13 0)
(1.54377e-13 2.13512e-13 0)
(-1.30594e-13 1.72236e-13 0)
(-9.77136e-14 1.24407e-13 0)
(2.0178e-13 1.80265e-13 0)
(2.52422e-13 1.93995e-13 0)
(5.22974e-14 4.22201e-13 0)
(-1.10286e-13 4.6415e-13 0)
(-2.90379e-13 5.73412e-13 0)
(-4.93572e-13 4.88317e-13 0)
(-7.60804e-13 3.79756e-13 0)
(-9.78295e-13 2.02264e-13 0)
(-9.09553e-13 -1.05793e-13 0)
(-8.03691e-13 -2.26351e-13 0)