/*--------------------------------*- C++ -*----------------------------------*\
| =========                 |                                                 |
| \\      /  F ield         | OpenFOAM: The Open Source CFD Toolbox           |
|  \\    /   O peration     | Version:  2306                                  |
|   \\  /    A nd           | Website:  www.openfoam.com                      |
|    \\/     M anipulation  |                                                 |
\*---------------------------------------------------------------------------*/
FoamFile
{
    version     2.0;
    format      ascii;
    arch        "LSB;label=32;scalar=64";
    class       volVectorField;
    location    "0.03";
    object      U;
}
// * * * * * * * * * * * * * * * * * * * * * * * * * * * * * * * * * * * * * //

dimensions      [0 1 -1 0 0 0 0];

internalField   nonuniform List<vector> 
6000
(
(500 5.03704e-16 0)
(500 1.01297e-13 0)
(500 1.15046e-13 0)
(500 7.52262e-14 0)
(500 1.57133e-14 0)
(500 -1.50874e-12 0)
(500 3.42565e-11 0)
(500 -2.73514e-10 0)
(500 1.24694e-09 0)
(500 1.56788e-09 0)
(499.998 -1.67597e-08 0)
(499.991 6.83432e-08 0)
(499.964 1.29883e-07 0)
(499.873 -1.77091e-06 0)
(499.631 1.00722e-05 0)
(499.186 -3.14484e-05 0)
(498.825 3.34918e-05 0)
(498.79 -1.02326e-06 0)
(498.869 -0.000103169 0)
(499.172 -0.000688073 0)
(499.77 0.00407273 0)
(500.608 -0.00229839 0)
(501.547 -0.00909462 0)
(502.423 0.0121242 0)
(503.13 0.0125226 0)
(503.665 -0.0115551 0)
(504.046 -0.0117782 0)
(504.312 0.00465669 0)
(504.495 0.0141921 0)
(504.645 0.00471356 0)
(504.775 -0.00617597 0)
(504.887 -0.00761488 0)
(504.98 -0.00282439 0)
(505.052 0.00468217 0)
(505.107 0.0059309 0)
(505.158 0.000421365 0)
(505.205 -0.00339979 0)
(505.249 -0.0035481 0)
(505.289 -0.00136841 0)
(505.316 0.0020282 0)
(505.322 0.00222783 0)
(505.321 0.000356509 0)
(505.32 -0.00121429 0)
(505.317 -0.00164901 0)
(505.308 -0.000789026 0)
(505.292 0.000301926 0)
(505.27 0.000988621 0)
(505.247 0.000743268 0)
(505.226 -0.000458311 0)
(505.209 -0.000971682 0)
(505.195 -0.000356896 0)
(505.182 0.00050057 0)
(505.17 0.000517248 0)
(505.159 -4.24864e-05 0)
(505.15 -0.000411993 0)
(505.142 -0.000155759 0)
(505.135 4.52593e-05 0)
(505.13 0.000151845 0)
(505.125 0.00011319 0)
(505.121 -1.04987e-05 0)
(505.12 -0.000103279 0)
(505.118 -9.26307e-05 0)
(505.116 -5.33822e-05 0)
(505.114 -2.94173e-06 0)
(505.111 1.70373e-05 0)
(505.108 1.29375e-05 0)
(505.107 6.72999e-06 0)
(505.108 9.8935e-06 0)
(505.108 2.72798e-05 0)
(505.11 4.20209e-05 0)
(505.114 5.75219e-05 0)
(505.12 8.37382e-05 0)
(505.128 8.44041e-05 0)
(505.137 6.4144e-05 0)
(505.147 6.05931e-05 0)
(505.157 2.50287e-05 0)
(505.166 -2.61658e-05 0)
(505.174 -3.09461e-05 0)
(505.18 -3.20433e-05 0)
(505.186 -3.38166e-05 0)
(505.191 -3.92468e-05 0)
(505.196 -4.18919e-05 0)
(505.201 -4.12399e-05 0)
(505.205 -2.94419e-05 0)
(505.206 5.62023e-06 0)
(505.206 3.13078e-05 0)
(505.205 3.32853e-05 0)
(505.203 2.7718e-05 0)
(505.199 -4.95594e-06 0)
(505.193 -1.38494e-05 0)
(505.185 -1.21248e-05 0)
(505.178 -2.14447e-05 0)
(505.172 -3.07143e-05 0)
(505.167 -2.16544e-05 0)
(505.163 -1.19591e-05 0)
(505.16 -5.35024e-06 0)
(505.157 -1.5593e-05 0)
(505.154 -1.29883e-05 0)
(505.151 -7.71333e-06 0)
(505.148 1.7786e-06 0)
(505.146 7.40922e-06 0)
(505.144 7.76834e-06 0)
(505.142 -4.47707e-07 0)
(505.141 -8.47926e-06 0)
(505.139 -8.10559e-06 0)
(505.136 -2.8741e-06 0)
(505.133 1.13064e-05 0)
(505.128 1.43185e-05 0)
(505.121 2.24811e-05 0)
(505.111 2.30402e-05 0)
(505.106 4.05647e-06 0)
(505.105 -7.33061e-06 0)
(505.106 -8.09733e-06 0)
(505.111 -1.15352e-05 0)
(505.12 1.09067e-05 0)
(505.133 -1.5496e-05 0)
(505.146 -2.16334e-05 0)
(505.156 1.56097e-05 0)
(505.162 9.38902e-06 0)
(505.166 -2.96523e-06 0)
(505.169 -1.05509e-05 0)
(505.172 -2.4695e-06 0)
(505.177 1.09238e-05 0)
(505.182 2.32576e-05 0)
(505.188 5.46538e-06 0)
(505.193 1.52235e-05 0)
(505.196 2.31312e-05 0)
(505.199 7.04925e-06 0)
(505.202 3.60981e-07 0)
(505.203 7.89946e-06 0)
(505.203 2.04049e-05 0)
(505.203 2.15799e-05 0)
(505.201 4.24017e-06 0)
(505.198 -3.47402e-05 0)
(505.193 -5.95423e-05 0)
(505.187 -8.09822e-05 0)
(505.18 -5.53115e-05 0)
(505.174 1.31777e-05 0)
(505.169 5.84454e-05 0)
(505.164 7.49694e-05 0)
(505.161 4.8981e-05 0)
(505.158 -5.0804e-05 0)
(505.155 -8.7494e-05 0)
(505.152 -8.79534e-05 0)
(505.15 -7.3235e-05 0)
(505.148 -2.8686e-05 0)
(505.146 4.26944e-05 0)
(505.144 6.68195e-05 0)
(505.143 6.88514e-05 0)
(505.142 5.99797e-05 0)
(505.141 1.77161e-05 0)
(505.139 -2.46252e-05 0)
(505.138 -3.70123e-05 0)
(505.136 -3.76616e-05 0)
(505.133 -2.46004e-05 0)
(505.128 -2.18649e-05 0)
(505.12 -5.74751e-06 0)
(505.109 -3.75284e-05 0)
(505.1 -1.09662e-05 0)
(505.098 3.80465e-07 0)
(505.099 1.63015e-05 0)
(505.104 2.63827e-05 0)
(505.116 4.29433e-05 0)
(505.131 6.61374e-05 0)
(505.145 -2.77652e-05 0)
(505.156 -2.44903e-05 0)
(505.164 1.63026e-05 0)
(505.169 2.34947e-05 0)
(505.173 2.53321e-05 0)
(505.176 1.93155e-05 0)
(505.179 9.02192e-07 0)
(505.183 -1.93802e-05 0)
(505.187 -2.85951e-05 0)
(505.19 -3.18215e-05 0)
(505.193 -2.57353e-05 0)
(505.196 4.40353e-06 0)
(505.2 2.47428e-05 0)
(505.204 1.62376e-05 0)
(505.207 1.00925e-05 0)
(505.208 3.79852e-06 0)
(505.208 -2.03293e-06 0)
(505.207 -4.59141e-06 0)
(505.203 -5.75898e-06 0)
(505.198 1.50662e-06 0)
(505.19 5.75014e-06 0)
(505.183 6.89794e-06 0)
(505.176 1.07644e-05 0)
(505.17 3.62404e-06 0)
(505.165 -9.5685e-06 0)
(505.16 -1.99058e-05 0)
(505.156 -2.41802e-05 0)
(505.154 -2.43474e-05 0)
(505.151 -1.22514e-05 0)
(505.149 6.94713e-06 0)
(505.147 2.08094e-05 0)
(505.146 1.75761e-05 0)
(505.146 4.93518e-06 0)
(505.145 4.54962e-07 0)
(505.143 -1.78406e-06 0)
(505.141 -6.57689e-06 0)
(505.138 -4.56117e-06 0)
(505.135 2.2105e-06 0)
(505.132 3.3862e-06 0)
(505.128 1.52738e-06 0)
(505.123 -1.02477e-06 0)
(505.117 -2.82242e-06 0)
(505.109 -2.57558e-06 0)
(505.098 4.32509e-07 0)
(505.087 2.0188e-06 0)
(505.083 1.61386e-06 0)
(505.086 9.41558e-07 0)
(505.098 7.23621e-07 0)
(505.114 -7.87672e-07 0)
(505.131 -9.18296e-07 0)
(505.147 -8.25584e-07 0)
(505.159 -7.30732e-07 0)
(505.167 -2.81127e-07 0)
(505.171 5.03695e-07 0)
(505.176 1.00259e-06 0)
(505.179 4.68121e-07 0)
(505.183 3.33214e-07 0)
(505.188 3.01357e-07 0)
(505.192 7.60389e-08 0)
(505.196 -5.02079e-08 0)
(505.199 -6.37074e-08 0)
(505.205 5.18502e-08 0)
(505.21 2.43503e-07 0)
(505.212 4.29721e-07 0)
(505.214 4.35534e-07 0)
(505.302 1.29408e-07 0)
(505.264 -2.05126e-07 0)
(505.008 -2.55765e-07 0)
(505.03 -3.04749e-07 0)
(505.028 -2.97513e-07 0)
(505.034 -2.96396e-07 0)
(505.063 -2.98283e-07 0)
(505.134 -1.54297e-07 0)
(505.257 -7.856e-08 0)
(505.612 2.98692e-08 0)
(505.698 2.26512e-07 0)
(505.498 2.66851e-07 0)
(505.34 1.37591e-07 0)
(505.181 3.67314e-08 0)
(505.068 4.0248e-08 0)
(505.001 6.4001e-08 0)
(504.967 2.36623e-08 0)
(504.938 -1.25756e-08 0)
(504.773 -3.69008e-08 0)
(504.702 -1.26847e-08 0)
(504.811 -8.95754e-10 0)
(504.915 1.86251e-08 0)
(505.095 2.94436e-08 0)
(505.362 5.29384e-08 0)
(505.619 4.31975e-08 0)
(505.758 -2.35999e-08 0)
(505.666 -4.71404e-08 0)
(505.502 -4.14629e-08 0)
(505.294 -2.22362e-08 0)
(504.967 1.08733e-08 0)
(504.737 3.42394e-08 0)
(504.684 3.35833e-08 0)
(504.676 2.68452e-08 0)
(504.673 1.74513e-08 0)
(504.642 6.75621e-09 0)
(504.695 5.83972e-09 0)
(504.846 6.01827e-09 0)
(505.068 -9.45779e-10 0)
(505.547 -8.84512e-09 0)
(505.865 -6.32083e-09 0)
(505.921 -5.45403e-09 0)
(505.917 -5.72654e-09 0)
(505.841 -4.32531e-09 0)
(505.542 -3.09365e-09 0)
(504.983 -3.79569e-09 0)
(504.739 -3.06579e-09 0)
(504.654 -1.71571e-09 0)
(504.627 -1.4622e-10 0)
(504.643 1.23867e-09 0)
(504.679 4.35427e-09 0)
(504.715 5.562e-09 0)
(504.816 5.77093e-09 0)
(505.163 4.24589e-09 0)
(505.739 -1.22098e-09 0)
(506.056 -5.55408e-09 0)
(506.144 -6.94393e-09 0)
(506.151 -7.05599e-09 0)
(506.076 -5.88192e-09 0)
(505.628 -2.44018e-09 0)
(504.817 9.95832e-10 0)
(504.551 2.04855e-09 0)
(504.467 2.348e-09 0)
(504.434 2.11198e-09 0)
(504.489 6.70192e-10 0)
(504.538 -2.01714e-11 0)
(504.574 2.77182e-10 0)
(504.664 6.60746e-10 0)
(505.008 7.28352e-10 0)
(505.698 5.02936e-10 0)
(506.292 2.84234e-10 0)
(507.687 4.46549e-11 0)
(500 1.02609e-13 0)
(500 9.95217e-14 0)
(500 1.44983e-13 0)
(500 1.28825e-13 0)
(500 1.52181e-13 0)
(500 -4.52394e-12 0)
(500 7.10974e-11 0)
(500 -7.00576e-10 0)
(500 4.11362e-09 0)
(500 -1.44185e-08 0)
(499.998 7.72549e-09 0)
(499.991 1.37554e-07 0)
(499.964 -3.86405e-07 0)
(499.873 -9.31181e-07 0)
(499.631 9.58694e-06 0)
(499.186 -2.24057e-05 0)
(498.825 1.48795e-05 0)
(498.79 -2.35764e-07 0)
(498.869 -0.000149613 0)
(499.172 -0.000318251 0)
(499.77 0.0037227 0)
(500.61 -0.00422026 0)
(501.546 -0.0081904 0)
(502.418 0.0150539 0)
(503.136 0.00972728 0)
(503.671 -0.0151299 0)
(504.044 -0.0129363 0)
(504.306 0.00823822 0)
(504.495 0.0155158 0)
(504.651 0.00525217 0)
(504.781 -0.0078264 0)
(504.887 -0.00992341 0)
(504.978 -0.00320312 0)
(505.05 0.00650021 0)
(505.109 0.00743705 0)
(505.162 0.00162906 0)
(505.208 -0.00443764 0)
(505.249 -0.00493927 0)
(505.288 -0.00194372 0)
(505.315 0.00262334 0)
(505.323 0.00312423 0)
(505.322 0.00134831 0)
(505.321 -0.00155444 0)
(505.317 -0.00241656 0)
(505.308 -0.00162384 0)
(505.291 0.000337454 0)
(505.27 0.00163641 0)
(505.247 0.0012382 0)
(505.226 -0.00049732 0)
(505.209 -0.00133674 0)
(505.194 -0.000779821 0)
(505.181 0.000367835 0)
(505.17 0.000512868 0)
(505.159 -0.000139074 0)
(505.15 -0.000509174 0)
(505.142 -0.000286344 0)
(505.135 1.43389e-06 0)
(505.129 0.000247822 0)
(505.125 0.000235935 0)
(505.121 9.96673e-05 0)
(505.12 -0.000104874 0)
(505.118 -0.000125669 0)
(505.116 -9.48799e-05 0)
(505.114 -5.14627e-05 0)
(505.111 -3.20786e-05 0)
(505.108 -2.82319e-05 0)
(505.107 -3.26401e-05 0)
(505.108 -2.43915e-05 0)
(505.108 1.06272e-05 0)
(505.11 5.29185e-05 0)
(505.114 0.000114526 0)
(505.12 0.000195433 0)
(505.128 0.000226103 0)
(505.138 0.000207526 0)
(505.147 0.000191051 0)
(505.157 9.72169e-05 0)
(505.166 -3.7355e-05 0)
(505.174 -0.000101198 0)
(505.18 -0.000106825 0)
(505.186 -7.30107e-05 0)
(505.191 -8.14313e-05 0)
(505.196 -0.000114083 0)
(505.201 -0.00015557 0)
(505.205 -0.000169492 0)
(505.206 -8.71297e-05 0)
(505.206 4.2472e-05 0)
(505.205 7.24494e-05 0)
(505.203 0.00010733 0)
(505.199 0.000104395 0)
(505.193 3.94224e-05 0)
(505.185 9.13444e-06 0)
(505.178 -1.83039e-05 0)
(505.172 -2.93921e-05 0)
(505.167 -9.93055e-06 0)
(505.163 1.5882e-05 0)
(505.159 1.96385e-05 0)
(505.157 -4.77816e-05 0)
(505.154 -6.79953e-05 0)
(505.151 -6.03777e-05 0)
(505.148 -1.36603e-05 0)
(505.146 3.47153e-05 0)
(505.144 6.94603e-05 0)
(505.142 6.05389e-05 0)
(505.141 -7.07593e-06 0)
(505.139 -2.8161e-05 0)
(505.136 -3.73388e-05 0)
(505.133 -1.62712e-05 0)
(505.128 -1.802e-06 0)
(505.121 3.66199e-05 0)
(505.111 0.000100014 0)
(505.105 6.76653e-05 0)
(505.105 1.34096e-05 0)
(505.106 2.60233e-06 0)
(505.111 -1.84868e-05 0)
(505.12 2.44624e-05 0)
(505.133 -8.49174e-06 0)
(505.146 -7.03498e-05 0)
(505.156 1.97329e-05 0)
(505.162 -1.03953e-05 0)
(505.166 -7.17358e-05 0)
(505.169 -6.29023e-05 0)
(505.172 -1.47573e-05 0)
(505.177 2.65313e-05 0)
(505.182 6.67505e-05 0)
(505.188 5.95966e-05 0)
(505.193 5.48558e-05 0)
(505.196 2.73136e-05 0)
(505.199 -3.55432e-05 0)
(505.202 -5.43909e-05 0)
(505.203 -5.52125e-05 0)
(505.203 -6.46989e-06 0)
(505.203 5.51614e-05 0)
(505.201 6.9965e-05 0)
(505.198 2.29011e-05 0)
(505.193 -4.96553e-05 0)
(505.186 -0.000129883 0)
(505.18 -0.000159982 0)
(505.174 -0.000109477 0)
(505.169 3.04943e-06 0)
(505.165 0.000170773 0)
(505.161 0.000298765 0)
(505.158 0.000163915 0)
(505.155 -7.5153e-05 0)
(505.152 -0.00017546 0)
(505.15 -0.000236426 0)
(505.148 -0.000251296 0)
(505.146 -0.000132487 0)
(505.145 1.36012e-05 0)
(505.143 8.31541e-05 0)
(505.142 0.000186042 0)
(505.141 0.000199651 0)
(505.139 7.6265e-05 0)
(505.138 -2.66172e-05 0)
(505.136 -7.23456e-05 0)
(505.133 -5.63628e-05 0)
(505.128 -4.62723e-05 0)
(505.12 -1.11999e-05 0)
(505.109 -7.63568e-05 0)
(505.1 -4.92363e-05 0)
(505.098 -3.89662e-05 0)
(505.099 2.71862e-05 0)
(505.104 6.54731e-05 0)
(505.116 9.70655e-05 0)
(505.131 0.000152897 0)
(505.145 1.72877e-05 0)
(505.156 -6.11111e-05 0)
(505.164 -5.17513e-05 0)
(505.169 -4.80916e-05 0)
(505.173 3.10089e-05 0)
(505.176 4.98234e-05 0)
(505.179 4.7398e-05 0)
(505.183 1.16969e-05 0)
(505.187 -3.52337e-05 0)
(505.19 -8.81811e-05 0)
(505.193 -0.000135909 0)
(505.197 -5.34781e-05 0)
(505.2 4.04182e-05 0)
(505.204 5.70784e-05 0)
(505.207 6.2854e-05 0)
(505.208 4.04258e-05 0)
(505.208 5.3693e-06 0)
(505.207 -1.70587e-05 0)
(505.203 -2.63546e-05 0)
(505.198 -2.52954e-05 0)
(505.19 -7.88754e-06 0)
(505.183 2.28566e-05 0)
(505.176 6.11947e-05 0)
(505.17 5.99382e-05 0)
(505.165 2.04842e-05 0)
(505.16 -2.13075e-05 0)
(505.156 -5.66233e-05 0)
(505.154 -7.9219e-05 0)
(505.151 -8.28133e-05 0)
(505.149 -2.53499e-05 0)
(505.147 5.84804e-05 0)
(505.146 6.98635e-05 0)
(505.145 4.46557e-05 0)
(505.145 2.22495e-05 0)
(505.143 -3.51716e-06 0)
(505.141 -1.6367e-05 0)
(505.138 -2.04514e-05 0)
(505.135 -5.99373e-06 0)
(505.132 -5.50507e-07 0)
(505.128 1.41793e-06 0)
(505.123 2.55018e-06 0)
(505.117 5.92343e-06 0)
(505.109 9.1867e-06 0)
(505.098 1.28227e-05 0)
(505.087 5.17779e-06 0)
(505.083 1.6171e-06 0)
(505.086 -9.34156e-07 0)
(505.098 -5.59278e-06 0)
(505.114 -6.26204e-06 0)
(505.131 -1.49471e-06 0)
(505.147 -2.93778e-07 0)
(505.159 1.71337e-06 0)
(505.167 2.46608e-06 0)
(505.171 3.26984e-06 0)
(505.176 2.11992e-06 0)
(505.179 -5.64014e-07 0)
(505.183 -7.99081e-07 0)
(505.188 -1.22381e-06 0)
(505.192 -1.2657e-06 0)
(505.196 -8.81499e-07 0)
(505.199 -2.03948e-07 0)
(505.205 4.74e-07 0)
(505.21 8.90289e-07 0)
(505.212 1.19025e-06 0)
(505.214 1.33695e-06 0)
(505.302 4.1362e-07 0)
(505.264 -8.82855e-07 0)
(505.008 -7.11799e-07 0)
(505.03 -5.63427e-07 0)
(505.028 -5.09521e-07 0)
(505.034 -5.28758e-07 0)
(505.063 -5.65977e-07 0)
(505.134 -3.04666e-07 0)
(505.257 -8.79834e-08 0)
(505.612 3.06143e-07 0)
(505.698 6.82228e-07 0)
(505.498 6.59843e-07 0)
(505.34 4.9787e-07 0)
(505.181 2.06597e-07 0)
(505.068 2.53787e-08 0)
(505.001 -7.41502e-08 0)
(504.967 -1.79052e-07 0)
(504.938 -3.21841e-07 0)
(504.773 -3.19665e-07 0)
(504.702 -1.35816e-07 0)
(504.811 -6.86072e-08 0)
(504.915 3.91791e-08 0)
(505.095 1.45421e-07 0)
(505.362 1.47434e-07 0)
(505.619 3.7499e-08 0)
(505.758 -8.48213e-08 0)
(505.666 -1.08245e-07 0)
(505.502 -1.24923e-07 0)
(505.294 -1.39918e-07 0)
(504.967 -3.39077e-08 0)
(504.737 5.00736e-08 0)
(504.684 6.09302e-08 0)
(504.676 5.27725e-08 0)
(504.673 3.50978e-08 0)
(504.642 6.43669e-09 0)
(504.695 -1.54202e-08 0)
(504.846 -2.85567e-08 0)
(505.068 -3.39681e-08 0)
(505.547 -2.2779e-08 0)
(505.865 -4.99146e-09 0)
(505.921 2.96249e-09 0)
(505.917 1.21226e-08 0)
(505.841 1.9808e-08 0)
(505.542 1.45987e-08 0)
(504.983 -6.13454e-09 0)
(504.739 -1.03567e-08 0)
(504.654 -8.3909e-09 0)
(504.627 -7.7082e-09 0)
(504.643 -4.11141e-09 0)
(504.679 6.04748e-09 0)
(504.715 1.34623e-08 0)
(504.816 1.81425e-08 0)
(505.163 1.45812e-08 0)
(505.739 -4.62618e-10 0)
(506.056 -4.63677e-09 0)
(506.144 -4.29623e-09 0)
(506.151 -3.58747e-09 0)
(506.076 -5.21431e-10 0)
(505.628 1.06608e-09 0)
(504.817 1.19064e-09 0)
(504.551 9.62497e-10 0)
(504.467 4.18548e-10 0)
(504.434 -1.59758e-09 0)
(504.489 -3.14126e-09 0)
(504.538 -3.02273e-09 0)
(504.574 -1.4919e-09 0)
(504.664 7.271e-10 0)
(505.008 2.96233e-09 0)
(505.698 2.28764e-09 0)
(506.292 9.97194e-10 0)
(507.687 4.58916e-11 0)
(500 4.61579e-14 0)
(500 7.8821e-14 0)
(500 1.03351e-13 0)
(500 1.26814e-13 0)
(500 1.53046e-13 0)
(500 -6.08397e-12 0)
(500 1.01341e-10 0)
(500 -9.83448e-10 0)
(500 5.99065e-09 0)
(500 -2.1218e-08 0)
(499.998 1.68473e-08 0)
(499.991 1.82278e-07 0)
(499.964 -6.43307e-07 0)
(499.873 -7.75087e-07 0)
(499.631 1.18954e-05 0)
(499.186 -3.0983e-05 0)
(498.825 2.65579e-05 0)
(498.79 -6.2452e-07 0)
(498.869 -0.000284516 0)
(499.172 0.000340922 0)
(499.77 0.003837 0)
(500.611 -0.00828092 0)
(501.546 -0.0050556 0)
(502.415 0.0196494 0)
(503.138 0.00441173 0)
(503.671 -0.0210513 0)
(504.044 -0.0114684 0)
(504.303 0.0134107 0)
(504.493 0.0163883 0)
(504.653 0.00325871 0)
(504.782 -0.0102947 0)
(504.887 -0.0113713 0)
(504.978 -0.00218838 0)
(505.05 0.00829935 0)
(505.109 0.0081355 0)
(505.163 0.00178836 0)
(505.209 -0.004995 0)
(505.249 -0.00570002 0)
(505.288 -0.0021669 0)
(505.315 0.00294034 0)
(505.323 0.00376046 0)
(505.323 0.00205089 0)
(505.322 -0.00159033 0)
(505.318 -0.00266943 0)
(505.308 -0.0019414 0)
(505.291 0.000259964 0)
(505.27 0.0018867 0)
(505.248 0.00144416 0)
(505.227 -0.000593051 0)
(505.209 -0.00145703 0)
(505.194 -0.00102867 0)
(505.181 0.000293304 0)
(505.17 0.000609329 0)
(505.159 -7.47623e-05 0)
(505.15 -0.000473748 0)
(505.142 -0.000326086 0)
(505.135 -4.06608e-05 0)
(505.13 0.000232865 0)
(505.125 0.000199397 0)
(505.121 4.29654e-05 0)
(505.119 -0.000119253 0)
(505.118 -0.000130639 0)
(505.116 -0.000101203 0)
(505.114 -7.13227e-05 0)
(505.111 -7.63381e-05 0)
(505.108 -8.88257e-05 0)
(505.107 -8.74934e-05 0)
(505.108 -5.79183e-05 0)
(505.108 1.92879e-05 0)
(505.11 8.23921e-05 0)
(505.114 0.000163989 0)
(505.121 0.000253869 0)
(505.128 0.000268994 0)
(505.138 0.000251417 0)
(505.147 0.000221676 0)
(505.157 8.80699e-05 0)
(505.166 -7.10075e-05 0)
(505.174 -8.24656e-05 0)
(505.181 -7.15789e-05 0)
(505.186 -9.12323e-05 0)
(505.191 -0.000123212 0)
(505.196 -0.000157721 0)
(505.201 -0.000189399 0)
(505.205 -0.000172932 0)
(505.207 -9.15667e-05 0)
(505.206 4.96093e-05 0)
(505.205 0.000103277 0)
(505.203 0.000125656 0)
(505.199 0.000106065 0)
(505.192 2.57174e-05 0)
(505.185 -1.38741e-05 0)
(505.178 -4.24504e-05 0)
(505.172 -4.70944e-05 0)
(505.167 -2.46413e-05 0)
(505.163 -7.28566e-06 0)
(505.159 -2.13503e-06 0)
(505.156 -3.82545e-05 0)
(505.154 -5.7383e-05 0)
(505.151 -5.12636e-05 0)
(505.148 -1.19995e-05 0)
(505.146 3.90311e-05 0)
(505.144 7.01032e-05 0)
(505.142 6.81066e-05 0)
(505.141 6.07579e-06 0)
(505.138 -2.44739e-05 0)
(505.136 -3.73454e-05 0)
(505.133 -2.21201e-05 0)
(505.128 -1.07963e-05 0)
(505.121 3.3334e-05 0)
(505.111 8.9186e-05 0)
(505.105 7.51076e-05 0)
(505.105 4.40306e-05 0)
(505.106 3.04636e-05 0)
(505.111 -9.58347e-06 0)
(505.12 3.04519e-05 0)
(505.133 -1.33682e-06 0)
(505.146 -0.000137615 0)
(505.156 4.47538e-06 0)
(505.162 2.06666e-05 0)
(505.166 -6.82469e-05 0)
(505.169 -9.78627e-05 0)
(505.172 -4.82554e-05 0)
(505.177 1.91515e-05 0)
(505.182 9.58471e-05 0)
(505.188 0.000101013 0)
(505.192 0.000106764 0)
(505.196 5.08511e-05 0)
(505.199 -3.78696e-05 0)
(505.202 -3.87354e-05 0)
(505.203 -2.38929e-05 0)
(505.203 2.31502e-05 0)
(505.203 4.65218e-05 0)
(505.202 3.89425e-05 0)
(505.198 -2.76804e-05 0)
(505.193 -9.00726e-05 0)
(505.186 -0.000146296 0)
(505.18 -0.00015654 0)
(505.174 -0.000142102 0)
(505.169 -6.88376e-05 0)
(505.165 0.000125645 0)
(505.161 0.000344726 0)
(505.157 0.00033946 0)
(505.154 0.00015557 0)
(505.152 -0.000102395 0)
(505.15 -0.000292827 0)
(505.148 -0.000375855 0)
(505.146 -0.000311289 0)
(505.145 -9.74902e-05 0)
(505.144 7.97245e-05 0)
(505.142 0.000198045 0)
(505.141 0.000205493 0)
(505.139 0.000132086 0)
(505.137 3.75589e-05 0)
(505.135 -4.23786e-05 0)
(505.133 -4.41883e-05 0)
(505.128 -4.77676e-05 0)
(505.12 -2.47192e-05 0)
(505.109 -6.37139e-05 0)
(505.1 -3.56271e-05 0)
(505.098 -3.99182e-05 0)
(505.099 -6.23084e-06 0)
(505.104 3.77244e-05 0)
(505.116 0.000101152 0)
(505.131 0.000172623 0)
(505.145 -6.38296e-06 0)
(505.156 -7.55558e-05 0)
(505.164 -2.24083e-05 0)
(505.17 -1.89181e-05 0)
(505.173 5.83354e-06 0)
(505.176 5.40389e-05 0)
(505.18 6.67581e-05 0)
(505.183 5.80219e-05 0)
(505.187 -2.28844e-06 0)
(505.19 -8.52146e-05 0)
(505.193 -0.000172345 0)
(505.197 -0.000135973 0)
(505.2 -2.0354e-05 0)
(505.204 6.81609e-05 0)
(505.207 9.15586e-05 0)
(505.208 9.05627e-05 0)
(505.208 6.40185e-05 0)
(505.207 1.81212e-06 0)
(505.203 -3.01642e-05 0)
(505.198 -4.03628e-05 0)
(505.19 -2.56154e-05 0)
(505.183 1.63653e-05 0)
(505.176 6.8625e-05 0)
(505.17 8.07936e-05 0)
(505.165 5.06095e-05 0)
(505.16 6.43904e-06 0)
(505.156 -4.64887e-05 0)
(505.154 -9.50691e-05 0)
(505.151 -0.000111616 0)
(505.149 -4.29909e-06 0)
(505.147 4.56098e-05 0)
(505.146 6.40379e-05 0)
(505.145 4.78529e-05 0)
(505.145 3.02683e-05 0)
(505.143 3.80592e-06 0)
(505.141 -1.81903e-05 0)
(505.138 -2.89559e-05 0)
(505.135 -1.19536e-05 0)
(505.132 -4.79387e-06 0)
(505.128 7.57096e-07 0)
(505.123 7.2174e-06 0)
(505.117 1.34882e-05 0)
(505.109 1.64832e-05 0)
(505.098 1.16754e-05 0)
(505.087 -7.94123e-07 0)
(505.083 -4.70403e-06 0)
(505.086 -6.25961e-06 0)
(505.098 -7.70685e-06 0)
(505.114 -4.14996e-06 0)
(505.131 1.21149e-06 0)
(505.147 2.17788e-06 0)
(505.159 3.20525e-06 0)
(505.167 2.73394e-06 0)
(505.171 1.55124e-06 0)
(505.176 -1.51085e-07 0)
(505.179 -1.62686e-06 0)
(505.183 -1.74794e-06 0)
(505.188 -1.62668e-06 0)
(505.192 -1.14188e-06 0)
(505.196 -5.1154e-07 0)
(505.199 2.28629e-07 0)
(505.205 8.23461e-07 0)
(505.21 1.06176e-06 0)
(505.212 1.16702e-06 0)
(505.214 1.07881e-06 0)
(505.302 4.40519e-07 0)
(505.264 -3.2098e-07 0)
(505.008 -6.08843e-07 0)
(505.03 -6.18436e-07 0)
(505.028 -5.71779e-07 0)
(505.034 -6.00465e-07 0)
(505.063 -5.72241e-07 0)
(505.134 -9.12461e-08 0)
(505.257 1.33632e-07 0)
(505.612 3.33397e-07 0)
(505.698 5.9066e-07 0)
(505.498 5.97184e-07 0)
(505.34 4.53399e-07 0)
(505.181 1.44996e-07 0)
(505.068 -8.06084e-08 0)
(505.001 -2.16782e-07 0)
(504.967 -3.17209e-07 0)
(504.938 -3.19353e-07 0)
(504.773 -1.6376e-07 0)
(504.702 -1.26762e-09 0)
(504.811 4.1546e-08 0)
(504.915 1.11977e-07 0)
(505.095 1.44594e-07 0)
(505.362 5.03999e-08 0)
(505.619 -6.72e-08 0)
(505.758 -1.24758e-07 0)
(505.666 -1.26686e-07 0)
(505.502 -1.26268e-07 0)
(505.294 -8.73438e-08 0)
(504.967 2.15314e-08 0)
(504.737 9.67815e-08 0)
(504.684 1.1488e-07 0)
(504.676 1.05766e-07 0)
(504.673 7.62722e-08 0)
(504.642 3.89904e-11 0)
(504.695 -6.29596e-08 0)
(504.846 -8.27086e-08 0)
(505.068 -9.3918e-08 0)
(505.547 -5.71201e-08 0)
(505.865 -2.0612e-11 0)
(505.921 2.0036e-08 0)
(505.917 3.23901e-08 0)
(505.841 3.95816e-08 0)
(505.542 2.8313e-08 0)
(504.983 -9.83805e-09 0)
(504.739 -1.71341e-08 0)
(504.654 -1.20377e-08 0)
(504.627 -6.37955e-09 0)
(504.643 1.93525e-10 0)
(504.679 8.88922e-09 0)
(504.715 1.13608e-08 0)
(504.816 7.28008e-09 0)
(505.163 -2.9394e-09 0)
(505.739 -1.06691e-08 0)
(506.056 -4.76319e-09 0)
(506.144 2.75148e-09 0)
(506.151 6.85785e-09 0)
(506.076 1.19574e-08 0)
(505.628 1.22827e-08 0)
(504.817 4.53897e-09 0)
(504.551 -4.34123e-10 0)
(504.467 -3.3275e-09 0)
(504.434 -6.13176e-09 0)
(504.489 -6.44036e-09 0)
(504.538 -4.26967e-09 0)
(504.574 -1.70659e-09 0)
(504.664 7.78373e-10 0)
(505.008 2.5086e-09 0)
(505.698 1.4748e-09 0)
(506.292 1.73334e-10 0)
(507.687 -5.77696e-10 0)
(500 -1.47753e-13 0)
(500 1.42519e-13 0)
(500 1.08232e-13 0)
(500 6.68127e-14 0)
(500 5.09878e-14 0)
(500 -6.78472e-12 0)
(500 1.16705e-10 0)
(500 -1.14565e-09 0)
(500 7.08636e-09 0)
(500 -2.53866e-08 0)
(499.998 2.60454e-08 0)
(499.991 1.94186e-07 0)
(499.964 -8.40153e-07 0)
(499.873 -7.38346e-08 0)
(499.631 9.72417e-06 0)
(499.186 -2.62738e-05 0)
(498.825 1.91195e-05 0)
(498.79 -3.61236e-08 0)
(498.869 -0.000385784 0)
(499.172 0.00114499 0)
(499.77 0.00314258 0)
(500.611 -0.0114581 0)
(501.545 -4.20673e-05 0)
(502.414 0.0221011 0)
(503.14 -0.00179234 0)
(503.669 -0.0243892 0)
(504.043 -0.00683323 0)
(504.302 0.0170036 0)
(504.493 0.0156884 0)
(504.653 0.000141626 0)
(504.782 -0.0121996 0)
(504.887 -0.0113841 0)
(504.977 -5.93946e-05 0)
(505.049 0.00915596 0)
(505.109 0.00788836 0)
(505.163 0.00087987 0)
(505.209 -0.00562172 0)
(505.249 -0.00592759 0)
(505.288 -0.00184509 0)
(505.314 0.00339975 0)
(505.323 0.00407288 0)
(505.323 0.00217807 0)
(505.322 -0.00177574 0)
(505.318 -0.00282942 0)
(505.308 -0.00214296 0)
(505.291 0.000159155 0)
(505.27 0.00198633 0)
(505.248 0.00148679 0)
(505.227 -0.000595883 0)
(505.209 -0.00148339 0)
(505.194 -0.00103359 0)
(505.181 0.000299206 0)
(505.17 0.000633887 0)
(505.159 -3.5406e-05 0)
(505.15 -0.000440238 0)
(505.142 -0.000322488 0)
(505.135 -5.66223e-05 0)
(505.13 0.000185263 0)
(505.125 0.000161136 0)
(505.122 6.65044e-05 0)
(505.119 -1.52124e-05 0)
(505.118 -2.19552e-05 0)
(505.116 -1.29771e-05 0)
(505.114 -3.76821e-05 0)
(505.111 -0.000116148 0)
(505.108 -0.000158819 0)
(505.107 -0.00016294 0)
(505.108 -0.000123591 0)
(505.109 1.24635e-06 0)
(505.111 7.16535e-05 0)
(505.115 0.000168176 0)
(505.121 0.000258226 0)
(505.129 0.000259622 0)
(505.138 0.000258737 0)
(505.147 0.000234837 0)
(505.157 8.42385e-05 0)
(505.166 -6.91538e-05 0)
(505.174 -6.69511e-05 0)
(505.181 -6.13898e-05 0)
(505.186 -0.000103321 0)
(505.191 -0.000138726 0)
(505.196 -0.000151659 0)
(505.201 -0.000156679 0)
(505.205 -0.000133659 0)
(505.207 -7.15433e-05 0)
(505.206 4.48919e-05 0)
(505.205 0.000113703 0)
(505.203 0.000121276 0)
(505.199 0.00010329 0)
(505.192 2.21773e-05 0)
(505.185 -4.00296e-05 0)
(505.178 -6.84858e-05 0)
(505.172 -7.51729e-05 0)
(505.167 -5.85155e-05 0)
(505.163 -3.52755e-05 0)
(505.159 -1.32546e-05 0)
(505.156 -3.76742e-06 0)
(505.154 1.10429e-05 0)
(505.151 2.25243e-05 0)
(505.148 5.17289e-05 0)
(505.146 7.70759e-05 0)
(505.144 8.30232e-05 0)
(505.142 6.82747e-05 0)
(505.14 -4.11901e-06 0)
(505.138 -4.04335e-05 0)
(505.136 -4.50898e-05 0)
(505.133 -4.46086e-05 0)
(505.128 -3.23611e-05 0)
(505.121 3.53664e-06 0)
(505.111 5.32637e-05 0)
(505.106 7.6039e-05 0)
(505.105 7.11943e-05 0)
(505.106 6.03429e-05 0)
(505.111 1.32569e-05 0)
(505.12 5.73437e-05 0)
(505.133 1.93723e-05 0)
(505.146 -0.0001688 0)
(505.156 8.77112e-06 0)
(505.162 6.41398e-05 0)
(505.166 -5.6419e-05 0)
(505.169 -0.000125727 0)
(505.172 -8.33576e-05 0)
(505.177 7.91121e-06 0)
(505.182 9.92619e-05 0)
(505.188 8.20291e-05 0)
(505.192 5.29515e-05 0)
(505.196 9.09641e-06 0)
(505.199 3.08639e-06 0)
(505.202 1.82467e-05 0)
(505.203 3.89164e-05 0)
(505.203 4.18806e-05 0)
(505.203 1.95432e-05 0)
(505.202 -8.28396e-06 0)
(505.198 -0.000106493 0)
(505.193 -0.000143263 0)
(505.186 -0.000163823 0)
(505.18 -0.000130305 0)
(505.174 -6.47384e-05 0)
(505.17 0.000101972 0)
(505.165 0.000256835 0)
(505.161 0.000292714 0)
(505.157 0.000286424 0)
(505.154 0.000156502 0)
(505.152 -7.41103e-05 0)
(505.149 -0.000296927 0)
(505.148 -0.000363397 0)
(505.146 -0.000231411 0)
(505.145 -7.70497e-05 0)
(505.144 8.49075e-05 0)
(505.142 0.000177462 0)
(505.14 0.000167289 0)
(505.139 0.000135293 0)
(505.137 7.25715e-05 0)
(505.135 -1.27439e-05 0)
(505.133 -4.88661e-05 0)
(505.128 -6.60685e-05 0)
(505.12 -3.45801e-05 0)
(505.109 -6.52272e-05 0)
(505.1 -2.95097e-05 0)
(505.098 -1.29133e-05 0)
(505.099 2.99806e-06 0)
(505.104 1.82601e-05 0)
(505.116 6.16853e-05 0)
(505.131 0.000127007 0)
(505.145 -1.59262e-05 0)
(505.156 -6.67651e-05 0)
(505.164 2.15919e-05 0)
(505.17 1.07588e-05 0)
(505.173 1.70677e-05 0)
(505.176 7.3677e-05 0)
(505.18 7.55006e-05 0)
(505.183 4.79378e-05 0)
(505.187 -2.03244e-05 0)
(505.19 -0.000100593 0)
(505.193 -0.000182244 0)
(505.197 -0.000173563 0)
(505.2 -9.58786e-05 0)
(505.204 9.93166e-06 0)
(505.207 0.00013678 0)
(505.208 0.00014471 0)
(505.208 9.16791e-05 0)
(505.207 8.41079e-06 0)
(505.203 -2.76953e-05 0)
(505.198 -5.5364e-05 0)
(505.19 -5.35766e-05 0)
(505.183 -8.44125e-06 0)
(505.176 5.8442e-05 0)
(505.17 7.87116e-05 0)
(505.165 5.48727e-05 0)
(505.16 1.93553e-05 0)
(505.156 -3.3082e-05 0)
(505.154 -9.22926e-05 0)
(505.151 -9.27282e-05 0)
(505.149 -2.37056e-07 0)
(505.147 2.31755e-05 0)
(505.146 4.91126e-05 0)
(505.145 4.58041e-05 0)
(505.145 3.53987e-05 0)
(505.143 1.38733e-05 0)
(505.141 -1.63157e-05 0)
(505.138 -4.01779e-05 0)
(505.135 -2.14374e-05 0)
(505.132 -1.13732e-05 0)
(505.128 -2.11735e-06 0)
(505.123 1.15453e-05 0)
(505.117 1.93845e-05 0)
(505.109 2.27119e-05 0)
(505.098 1.39372e-05 0)
(505.087 -2.13895e-06 0)
(505.083 -7.01795e-06 0)
(505.086 -8.9219e-06 0)
(505.098 -7.8045e-06 0)
(505.114 -3.25824e-06 0)
(505.131 1.86433e-06 0)
(505.147 2.5689e-06 0)
(505.159 2.9469e-06 0)
(505.167 2.02713e-06 0)
(505.171 5.07818e-07 0)
(505.176 -7.63313e-07 0)
(505.179 -1.49498e-06 0)
(505.183 -1.51996e-06 0)
(505.188 -1.26884e-06 0)
(505.192 -8.99621e-07 0)
(505.196 -4.80399e-07 0)
(505.199 1.3913e-08 0)
(505.205 4.36446e-07 0)
(505.21 7.12346e-07 0)
(505.212 9.83691e-07 0)
(505.214 1.15032e-06 0)
(505.302 9.29815e-07 0)
(505.264 1.22651e-07 0)
(505.008 -6.29126e-07 0)
(505.03 -6.95462e-07 0)
(505.028 -6.15987e-07 0)
(505.034 -5.94777e-07 0)
(505.063 -5.30302e-07 0)
(505.134 -5.78259e-08 0)
(505.257 9.19347e-08 0)
(505.612 2.93444e-07 0)
(505.698 6.82943e-07 0)
(505.498 6.94946e-07 0)
(505.34 5.02597e-07 0)
(505.181 1.24347e-07 0)
(505.068 -1.30863e-07 0)
(505.001 -2.51814e-07 0)
(504.967 -3.26148e-07 0)
(504.938 -3.28195e-07 0)
(504.773 -1.94529e-07 0)
(504.702 -1.6514e-08 0)
(504.811 3.22248e-08 0)
(504.915 1.09192e-07 0)
(505.095 1.47583e-07 0)
(505.362 7.25701e-08 0)
(505.619 -4.49326e-08 0)
(505.758 -1.21525e-07 0)
(505.666 -1.34855e-07 0)
(505.502 -1.35553e-07 0)
(505.294 -1.0132e-07 0)
(504.967 2.68942e-08 0)
(504.737 1.16562e-07 0)
(504.684 1.29628e-07 0)
(504.676 1.12397e-07 0)
(504.673 7.51883e-08 0)
(504.642 -7.59386e-09 0)
(504.695 -6.75869e-08 0)
(504.846 -8.65883e-08 0)
(505.068 -9.76326e-08 0)
(505.547 -5.7791e-08 0)
(505.865 1.35139e-09 0)
(505.921 2.12523e-08 0)
(505.917 3.41033e-08 0)
(505.841 4.29883e-08 0)
(505.542 3.08309e-08 0)
(504.983 -8.21983e-09 0)
(504.739 -1.99485e-08 0)
(504.654 -1.59767e-08 0)
(504.627 -9.81405e-09 0)
(504.643 -1.73572e-09 0)
(504.679 8.99399e-09 0)
(504.715 1.2637e-08 0)
(504.816 8.95217e-09 0)
(505.163 -1.38087e-09 0)
(505.739 -9.10346e-09 0)
(506.056 -2.23373e-09 0)
(506.144 4.97178e-09 0)
(506.151 8.84567e-09 0)
(506.076 1.45141e-08 0)
(505.628 1.34853e-08 0)
(504.817 3.26711e-09 0)
(504.551 -1.69831e-09 0)
(504.467 -4.1937e-09 0)
(504.434 -7.20052e-09 0)
(504.489 -7.73579e-09 0)
(504.538 -5.11257e-09 0)
(504.574 -1.99676e-09 0)
(504.664 9.13122e-10 0)
(505.008 2.85975e-09 0)
(505.698 1.78347e-09 0)
(506.292 4.706e-10 0)
(507.687 -2.69542e-10 0)
(500 -4.53455e-14 0)
(500 6.4446e-14 0)
(500 -2.34567e-15 0)
(500 -2.65461e-14 0)
(500 -7.50684e-14 0)
(500 -6.53705e-12 0)
(500 1.18304e-10 0)
(500 -1.19181e-09 0)
(500 7.41553e-09 0)
(500 -2.66091e-08 0)
(499.998 2.89664e-08 0)